Program Version,EnergyPlus-Linux-64 8.1.0.008, YMD=2016.12.02 12:06
1,5,Environment Title[],Latitude[deg],Longitude[deg],Time Zone[],Elevation[m]
2,6,Day of Simulation[],Month[],Day of Month[],DST Indicator[1=yes 0=no],Hour[],StartMinute[],EndMinute[],DayType
3,3,Cumulative Day of Simulation[],Month[],Day of Month[],DST Indicator[1=yes 0=no],DayType  ! When Daily Report Variables Requested
4,2,Cumulative Days of Simulation[],Month[]  ! When Monthly Report Variables Requested
5,1,Cumulative Days of Simulation[] ! When Run Period Report Variables Requested
6,1,Environment,Site Outdoor Air Drybulb Temperature [C] !TimeStep
7,1,Environment,Site Outdoor Air Wetbulb Temperature [C] !TimeStep
8,1,Environment,Site Outdoor Air Relative Humidity [%] !TimeStep
9,1,Environment,Site Wind Speed [m/s] !TimeStep
10,1,Environment,Site Wind Direction [deg] !TimeStep
751,1,EMS,currentDayOfMonth [] !TimeStep
752,1,EMS,currentDayOfWeek [] !TimeStep
753,1,EMS,currentTimeOfDay [] !TimeStep
754,1,EMS,currentHoliday [] !TimeStep
827,1,BASEMENT,Zone Air Temperature [C] !TimeStep
860,1,CORE_BOTTOM,Zone Air Temperature [C] !TimeStep
893,1,CORE_MID,Zone Air Temperature [C] !TimeStep
926,1,CORE_TOP,Zone Air Temperature [C] !TimeStep
959,1,GROUNDFLOOR_PLENUM,Zone Air Temperature [C] !TimeStep
992,1,MIDFLOOR_PLENUM,Zone Air Temperature [C] !TimeStep
1025,1,PERIMETER_BOT_ZN_1,Zone Air Temperature [C] !TimeStep
1058,1,PERIMETER_BOT_ZN_2,Zone Air Temperature [C] !TimeStep
1091,1,PERIMETER_BOT_ZN_3,Zone Air Temperature [C] !TimeStep
1124,1,PERIMETER_BOT_ZN_4,Zone Air Temperature [C] !TimeStep
1157,1,PERIMETER_MID_ZN_1,Zone Air Temperature [C] !TimeStep
1190,1,PERIMETER_MID_ZN_2,Zone Air Temperature [C] !TimeStep
1223,1,PERIMETER_MID_ZN_3,Zone Air Temperature [C] !TimeStep
1256,1,PERIMETER_MID_ZN_4,Zone Air Temperature [C] !TimeStep
1289,1,PERIMETER_TOP_ZN_1,Zone Air Temperature [C] !TimeStep
1322,1,PERIMETER_TOP_ZN_2,Zone Air Temperature [C] !TimeStep
1355,1,PERIMETER_TOP_ZN_3,Zone Air Temperature [C] !TimeStep
1388,1,PERIMETER_TOP_ZN_4,Zone Air Temperature [C] !TimeStep
1421,1,TOPFLOOR_PLENUM,Zone Air Temperature [C] !TimeStep
1577,1,Whole Building,Facility Total Building Electric Demand Power [W] !TimeStep
1578,1,Whole Building,Facility Total HVAC Electric Demand Power [W] !TimeStep
1579,1,Whole Building,Facility Total Electric Demand Power [W] !TimeStep
1580,1,HTGSETP_SCH,Schedule Value [] !TimeStep
1581,1,HW-LOOP-TEMP-SCHEDULE,Schedule Value [] !TimeStep
1582,1,CW-LOOP-TEMP-SCHEDULE,Schedule Value [] !TimeStep
1583,1,CLGSETP_SCH,Schedule Value [] !TimeStep
1584,1,BLDG_LIGHT_SCH,Schedule Value [] !TimeStep
1821,1,COOLSYS1 CHILLER 1,Chiller Evaporator Outlet Temperature [C] !TimeStep
1835,1,COOLSYS1 CHILLER 2,Chiller Evaporator Outlet Temperature [C] !TimeStep
1869,1,HEATSYS1 BOILER,Boiler Outlet Temperature [C] !TimeStep
End of Data Dictionary
1,Chicago Ohare Intl Ap IL USA TMY3 WMO#=725300,  41.98, -87.92,  -6.00, 201.00
2,1, 7,17, 1, 1, 0.00, 5.00,Thursday       
6,26.0583333333333
7,23.7105968558398
8,82.5
9,3.64166666666667
10,238.333333333333
751,17.
752,5.
753,8.333333333333333E-002
754,0.0
1580,15.6
1581,82.2
1582,6.7
1583,27.
1584,0.5
827,24.7632701302119
860,24.6545035873497
893,24.6839000408092
926,24.7792149007375
959,25.1880345379485
992,25.1584009389364
1025,24.8115828511062
1058,24.0053649500218
1091,24.7922485106857
1124,23.9291494871921
1157,24.826042073473
1190,23.9169774902642
1223,24.8261687422572
1256,23.8204646355437
1289,24.9255442658094
1322,24.2435138251437
1355,24.9124874062829
1388,23.9508880831402
1421,25.6905409497802
1577,512050.741415891
1578,2.22371398712517
1579,512052.965129878
1821,9.47309369460175
1835,9.47309369460175
1869,80.0813668031307
2,1, 7,17, 1, 1, 5.00,10.00,Thursday       
6,26.0166666666667
7,23.7410132747338
8,83.
9,3.68333333333333
10,236.666666666667
751,17.
752,5.
753,0.166666666666667
754,0.0
1580,15.6
1581,82.2
1582,6.7
1583,27.
1584,0.5
827,24.9955482823145
860,25.200148621524
893,25.2504376707394
926,25.4118295295749
959,25.3316824724434
992,25.3052539852582
1025,25.4495516852686
1058,24.8297916317928
1091,25.3852775308233
1124,24.8206490426957
1157,25.4916839055978
1190,24.7592433113537
1223,25.442469167635
1256,24.7446113765437
1289,25.6237579232023
1322,25.0833368945527
1355,25.5692826756745
1388,24.9049041025793
1421,25.8739365236211
1577,512050.741415891
1578,2.22159085575835
1579,512052.963006747
1821,9.47309369460175
1835,9.47309369460175
1869,80.0813668031307
2,1, 7,17, 1, 1,10.00,15.00,Thursday       
6,25.975
7,23.7711156089752
8,83.5
9,3.725
10,235.
751,17.
752,5.
753,0.25
754,0.0
1580,15.6
1581,82.2
1582,6.7
1583,27.
1584,0.5
827,25.162525317882
860,25.5574568590917
893,25.619335623512
926,25.8158027112473
959,25.4294925148474
992,25.4047790595055
1025,25.8170017614333
1058,25.2909785282493
1091,25.7303572650489
1124,25.3137965720019
1157,25.8703970336892
1190,25.2271717567662
1223,25.7974839066397
1256,25.2506607479673
1289,26.0149636257907
1322,25.5463975863792
1355,25.9408221784561
1388,25.4222925232021
1421,25.9808125012182
1577,512050.741415891
1578,2.21998185205296
1579,512052.961397743
1821,9.47309369460175
1835,9.47309369460175
1869,80.0813668031307
2,1, 7,17, 1, 1,15.00,20.00,Thursday       
6,25.9333333333333
7,23.8009025499904
8,84.
9,3.76666666666667
10,233.333333333333
751,17.
752,5.
753,0.333333333333333
754,0.0
1580,15.6
1581,82.2
1582,6.7
1583,27.
1584,0.5
827,25.2779619052429
860,25.8258176462952
893,25.8933929822542
926,26.1092795437571
959,25.5037858048001
992,25.4802115222276
1025,26.0701078684274
1058,25.5991862947375
1091,25.9719328368728
1124,25.6388021517098
1157,26.123317290465
1190,25.5378258268013
1223,26.0389464682371
1256,25.5808762284855
1289,26.2727252788089
1322,25.8499579969381
1355,26.1885895330319
1388,25.7559334157167
1421,26.05219940588
1577,512050.741415891
1578,2.21885755325823
1579,512052.960273445
1821,9.47309369460175
1835,9.47309369460175
1869,80.0813668031307
2,1, 7,17, 1, 1,20.00,25.00,Thursday       
6,25.8916666666667
7,23.8303852323155
8,84.5
9,3.80833333333333
10,231.666666666667
751,17.
752,5.
753,0.416666666666667
754,0.0
1580,15.6
1581,82.2
1582,6.7
1583,27.
1584,0.5
827,25.3721980890812
860,26.0995812145972
893,26.170212842169
926,26.4062797166466
959,25.5778049645764
992,25.5552454111967
1025,26.2888912772421
1058,25.8795320851348
1091,26.1819888738475
1124,25.9323134433302
1157,26.3446513116083
1190,25.8243292256752
1223,26.2512080362925
1256,25.8804047149525
1289,26.5075797190927
1322,26.1272081439381
1355,26.4160024891793
1388,26.0533793883496
1421,26.1152932229955
1577,512050.741415891
1578,2.2182161289087
1579,512052.95963202
1821,9.47309369460175
1835,9.47309369460175
1869,80.0813668031307
2,1, 7,17, 1, 1,25.00,30.00,Thursday       
6,25.85
7,23.8595483704896
8,85.
9,3.85
10,230.
751,17.
752,5.
753,0.5
754,0.0
1580,15.6
1581,82.2
1582,6.7
1583,27.
1584,0.5
827,25.4185701685664
860,26.2574760018273
893,26.3310684597543
926,26.5883375276625
959,25.6276743833035
992,25.6056531744173
1025,26.4001880817517
1058,26.0305352459641
1091,26.2885167734731
1124,26.093403273212
1157,26.4602253655643
1190,25.9798623390218
1223,26.3613886115336
1256,26.0469639392109
1289,26.6348048184536
1322,26.2854632403115
1355,26.5390567068904
1388,26.2295370295934
1421,26.1535283440453
1577,512050.741415891
1578,2.21798150600769
1579,512052.959397397
1821,9.47309369460175
1835,9.47309369460175
1869,80.0813668031307
2,1, 7,17, 1, 1,30.00,35.00,Thursday       
6,25.8083333333333
7,23.8884092549663
8,85.5
9,3.89166666666667
10,228.333333333333
751,17.
752,5.
753,0.583333333333333
754,0.0
1580,15.6
1581,82.2
1582,6.7
1583,27.
1584,0.5
827,25.4494535514856
860,26.3738144224462
893,26.4503539761731
926,26.7246350118289
959,25.6698244339622
992,25.649059207499
1025,26.4792612948937
1058,26.1392769380469
1091,26.3641517833264
1124,26.2101184209671
1157,26.5428052713848
1190,26.0909262027211
1223,26.4400682333231
1256,26.1666977647884
1289,26.7262532480804
1322,26.3999474292997
1355,26.6274806706973
1388,26.3587961685941
1421,26.1847086081478
1577,512050.741415891
1578,2.21815752076301
1579,512052.959573412
1821,9.47309369460175
1835,9.47309369460175
1869,80.0813668031307
2,1, 7,17, 1, 1,35.00,40.00,Thursday       
6,25.7666666666667
7,23.9169690440234
8,86.
9,3.93333333333333
10,226.666666666667
751,17.
752,5.
753,0.666666666666667
754,0.0
1580,15.6
1581,82.2
1582,6.7
1583,27.
1584,0.5
827,25.4705287160215
860,26.4614296387739
893,26.5408805155832
926,26.8281961041795
959,25.704107807849
992,25.6845599994871
1025,26.5386577163588
1058,26.2210193446543
1091,26.4208875076813
1124,26.2980884807269
1157,26.6050548773377
1190,26.1746326686693
1223,26.4993632905235
1256,26.2570329642432
1289,26.7952071982409
1322,26.4863850896836
1355,26.6941251592331
1388,26.4571357964603
1421,26.2110482781837
1577,512050.741415891
1578,2.21872336332191
1579,512052.960139255
1821,9.47309369460175
1835,9.47309369460175
1869,80.0813668031307
2,1, 7,17, 1, 1,40.00,45.00,Thursday       
6,25.725
7,23.9452223645422
8,86.5
9,3.975
10,225.
751,17.
752,5.
753,0.75
754,0.0
1580,15.6
1581,82.2
1582,6.7
1583,27.
1584,0.5
827,25.4854089163701
860,26.529502635998
893,26.6118821121922
926,26.909293156021
959,25.7321293902973
992,25.7137000733317
1025,26.5857541069681
1058,26.2860904345095
1091,26.4657848278639
1124,26.3681660706177
1157,26.6545677643171
1190,26.2412429533248
1223,26.5465140885173
1256,26.3287707385008
1289,26.849984164985
1322,26.5550561684723
1355,26.7470409912583
1388,26.5343557726319
1421,26.2338237485106
1577,512050.741415891
1578,2.21965986236706
1579,512052.961075754
1821,9.47309369460175
1835,9.47309369460175
1869,80.0813668031307
2,1, 7,17, 1, 1,45.00,50.00,Thursday       
6,25.6833333333333
7,23.9731677359606
8,87.
9,4.01666666666667
10,223.333333333333
751,17.
752,5.
753,0.833333333333333
754,0.0
1580,15.6
1581,82.2
1582,6.7
1583,27.
1584,0.5
827,25.4963654000782
860,26.5840484907747
893,26.6694264739919
926,26.9748938386624
959,25.7552351648522
992,25.7378262827431
1025,26.6244946497262
1058,26.3397775223252
1091,26.5026769442972
1124,26.4259325626357
1157,26.6955059163757
1190,26.296353035828
1223,26.5855164935341
1256,26.3879047279803
1289,26.8952645014329
1322,26.6117838099854
1355,26.7907919049689
1388,26.5976989727849
1421,26.253704456766
1577,512050.741415891
1578,2.22094932652276
1579,512052.962365218
1821,9.47309369460175
1835,9.47309369460175
1869,80.0813668031307
2,1, 7,17, 1, 1,50.00,55.00,Thursday       
6,25.6416666666667
7,24.0008248944335
8,87.5
9,4.05833333333333
10,221.666666666667
751,17.
752,5.
753,0.916666666666667
754,0.0
1580,15.6
1581,82.2
1582,6.7
1583,27.
1584,0.5
827,25.5048469137935
860,26.6292058857215
893,26.7177085604825
926,27.0298738395042
959,25.7745454490161
992,25.7580797113622
1025,26.6574634893234
1058,26.3855986255918
1091,26.5340457337194
1124,26.4751614473809
1157,26.7305902700335
1190,26.343655791075
1223,26.6189591716584
1256,26.4384406784909
1289,26.9341081938314
1322,26.6604300915379
1355,26.8283394743815
1388,26.6517098991495
1421,26.2712076257311
1577,512050.741415891
1578,2.22257540422679
1579,512052.963991296
1821,9.47309369460175
1835,9.47309369460175
1869,80.0813668031307
2,1, 7,17, 1, 1,55.00,60.00,Thursday       
6,25.6
7,24.0281795299291
8,88.
9,4.1
10,220.
751,17.
752,5.
753,1.
754,0.0
1580,15.6
1581,82.2
1582,6.7
1583,27.
1584,0.5
827,25.5117452421302
860,26.667668863586
893,26.7594578735391
926,27.0774162951038
959,25.7909118719774
992,25.7753377293321
1025,26.6860611074488
1058,26.4254302044338
1091,26.56126469134
1124,26.5178623214094
1157,26.7613237792422
1190,26.3851496944719
1223,26.6482911665161
1256,26.4825644439042
1289,26.9682272953868
1322,26.7031231334703
1355,26.8613600056496
1388,26.6988737877313
1421,26.2866280922473
1577,512050.741415891
1578,2.22452295958832
1579,512052.965938851
1821,9.47309369460175
1835,9.47309369460175
1869,80.0813668031307
2,1, 7,17, 1, 2, 0.00, 5.00,Thursday       
6,25.55
7,24.0135456970152
8,88.25
9,4.05833333333333
10,220.
751,17.
752,5.
753,1.08333333333333
754,0.0
1580,15.6
1581,82.2
1582,6.7
1583,27.
1584,0.5
827,25.517609413108
860,26.7011900280592
893,26.7964433907853
926,27.1195739035655
959,25.804957346255
992,25.7902441300972
1025,26.7107173854249
1058,26.4601167697141
1091,26.5847725936594
1124,26.5549396479313
1157,26.7881909247343
1190,26.4217292114141
1223,26.6739960631936
1256,26.5212533729773
1289,26.9982488101085
1322,26.740833690946
1355,26.8904810622058
1388,26.7403471292545
1421,26.2996780249923
1577,512050.741415891
1578,2.22677796212801
1579,512052.968193853
1821,9.47309369460175
1835,9.47309369460175
1869,80.0813668031307
2,1, 7,17, 1, 2, 5.00,10.00,Thursday       
6,25.5
7,23.998806510212
8,88.5
9,4.01666666666667
10,220.
751,17.
752,5.
753,1.16666666666667
754,0.0
1580,15.6
1581,82.2
1582,6.7
1583,27.
1584,0.5
827,25.5227826133206
860,26.7309586150743
893,26.8298595514181
926,27.1577175688115
959,25.8171831615997
992,25.803318862202
1025,26.7321656984707
1058,26.4905612749263
1091,26.6052678492961
1124,26.5873802754484
1157,26.8120133155252
1190,26.4542822590519
1223,26.6967542015263
1256,26.5554759317494
1289,27.0250292358086
1322,26.7744715263844
1355,26.9164392801393
1388,26.7771629668798
1421,26.310713452539
1577,512050.741415891
1578,2.22690324160583
1579,512052.968319133
1821,9.47309369460175
1835,9.47309369460175
1869,80.0813668031307
2,1, 7,17, 1, 2,10.00,15.00,Thursday       
6,25.45
7,23.9839440398642
8,88.75
9,3.975
10,220.
751,17.
752,5.
753,1.25
754,0.0
1580,15.6
1581,82.2
1582,6.7
1583,27.
1584,0.5
827,25.5274816260105
860,26.7577979615903
893,26.8605271816021
926,27.1927735656478
959,25.8279885941236
992,25.8149741658856
1025,26.7510816605828
1058,26.5176279550034
1091,26.6233767335329
1124,26.6161391950195
1157,26.8333397195963
1190,26.4836658680943
1223,26.7173355400243
1256,26.5861912207138
1289,27.0491466777337
1322,26.8048902101163
1355,26.9398965654765
1388,26.8103045578859
1421,26.3200850475947
1577,512050.741415891
1578,2.22481044273583
1579,512052.966226334
1821,9.47309369460175
1835,9.47309369460175
1869,80.0813668031307
2,1, 7,17, 1, 2,15.00,20.00,Thursday       
6,25.4
7,23.9689613385146
8,89.
9,3.93333333333333
10,220.
751,17.
752,5.
753,1.33333333333333
754,0.0
1580,15.6
1581,82.2
1582,6.7
1583,27.
1584,0.5
827,25.5318456775768
860,26.7822931358871
893,26.8890239544377
926,27.2253838391459
959,25.837658085622
992,25.8255052416593
1025,26.7678038221643
1058,26.5417428962801
1091,26.6394290626356
1124,26.6416784549218
1157,26.8525022047998
1190,26.5103176665729
1223,26.735918451278
1256,26.6138943734458
1289,27.0709450489331
1322,26.8325342672781
1355,26.9613505841
1388,26.8402935940821
1421,26.3279458018945
1577,512050.741415891
1578,2.2229999908202
1579,512052.964415882
1821,9.47309369460175
1835,9.47309369460175
1869,80.0813668031307
2,1, 7,17, 1, 2,20.00,25.00,Thursday       
6,25.35
7,23.9538679504065
8,89.25
9,3.89166666666667
10,220.
751,17.
752,5.
753,1.41666666666667
754,0.0
1580,15.6
1581,82.2
1582,6.7
1583,27.
1584,0.5
827,25.5359659965992
860,26.8048707462987
893,26.9157661749327
926,27.2560023148493
959,25.8464272963842
992,25.8351537982224
1025,26.7828876664775
1058,26.5633782309936
1091,26.6539323713881
1124,26.6645202191647
1157,26.8699326885381
1190,26.5346917644588
1223,26.7528069533165
1256,26.6392640662991
1289,27.0908657802627
1322,26.8578490885548
1355,26.9809829062705
1388,26.8678002357477
1421,26.3345373534156
1577,512050.741415891
1578,2.22168700346759
1579,512052.963102895
1821,9.47309369460175
1835,9.47309369460175
1869,80.0813668031307
2,1, 7,17, 1, 2,25.00,30.00,Thursday       
6,25.3
7,23.9386550780042
8,89.5
9,3.85
10,220.
751,17.
752,5.
753,1.5
754,0.0
1580,15.6
1581,82.2
1582,6.7
1583,27.
1584,0.5
827,25.5399037636591
860,26.8258501860222
893,26.9410613449399
926,27.2849610657163
959,25.854461228615
992,25.8440898023448
1025,26.7962956168003
1058,26.5827611073154
1091,26.6668759430392
1124,26.6849101927577
1157,26.8857609735145
1190,26.5570083760346
1223,26.7682487314446
1256,26.6623184655749
1289,27.1089871368267
1322,26.8810541205335
1355,26.9989384010703
1388,26.8928830963823
1421,26.3399349215988
1577,512050.741415891
1578,2.22084351106668
1579,512052.962259402
1821,9.47309369460175
1835,9.47309369460175
1869,80.0813668031307
2,1, 7,17, 1, 2,30.00,35.00,Thursday       
6,25.25
7,23.9233344677808
8,89.75
9,3.80833333333333
10,220.
751,17.
752,5.
753,1.58333333333333
754,0.0
1580,15.6
1581,82.2
1582,6.7
1583,27.
1584,0.5
827,25.5437010765798
860,26.8454760779872
893,26.9651417244381
926,27.3125067790187
959,25.8619013490451
992,25.8524574918531
1025,26.8081964073418
1058,26.600210612788
1091,26.6784059567308
1124,26.7032020013084
1157,26.9002099817686
1190,26.5777208713791
1223,26.7823921563841
1256,26.683412913025
1289,27.1256637489698
1322,26.9025754774154
1355,27.0154940273089
1388,26.9158726444448
1421,26.3443236517179
1577,512050.741415891
1578,2.22044391289465
1579,512052.961859804
1821,9.47309369460175
1835,9.47309369460175
1869,80.0813668031307
2,1, 7,17, 1, 2,35.00,40.00,Thursday       
6,25.2
7,23.9078894790469
8,90.
9,3.76666666666667
10,220.
751,17.
752,5.
753,1.66666666666667
754,0.0
1580,15.6
1581,82.2
1582,6.7
1583,27.
1584,0.5
827,25.5473877040486
860,26.8639400057342
893,26.9881868042328
926,27.3388303069397
959,25.8688435482996
992,25.8603557869636
1025,26.8187210569995
1058,26.615871288328
1091,26.6886474080317
1124,26.7195514279711
1157,26.9133987383439
1190,26.5967548012667
1223,26.795347346224
1256,26.7027211517582
1289,27.1409535057173
1322,26.9223740685621
1355,27.0306720812067
1388,26.9369729801173
1421,26.3477415274816
1577,512050.741415891
1578,2.2204647291661
1579,512052.961880621
1821,9.47309369460175
1835,9.47309369460175
1869,80.0813668031307
2,1, 7,17, 1, 2,40.00,45.00,Thursday       
6,25.15
7,23.8923335184379
8,90.25
9,3.725
10,220.
751,17.
752,5.
753,1.75
754,0.0
1580,15.6
1581,82.2
1582,6.7
1583,27.
1584,0.5
827,25.5509852879805
860,26.8813950384767
893,27.0103379943807
926,27.3640801614449
959,25.8753755599456
992,25.8678727846327
1025,26.8280566744539
1058,26.630178553522
1091,26.6977705589278
1124,26.734443484622
1157,26.9254905436108
1190,26.6143368815176
1223,26.8072659691038
1256,26.7204418728198
1289,27.1550120260793
1322,26.940634689734
1355,27.0447384416758
1388,26.9563498464111
1421,26.3503373102822
1577,512050.741415891
1578,2.22088438415678
1579,512052.962300276
1821,9.47309369460175
1835,9.47309369460175
1869,80.0813668031307
2,1, 7,17, 1, 2,45.00,50.00,Thursday       
6,25.1
7,23.8766657309184
8,90.5
9,3.68333333333333
10,220.
751,17.
752,5.
753,1.83333333333333
754,0.0
1580,15.6
1581,82.2
1582,6.7
1583,27.
1584,0.5
827,25.5545099915312
860,26.8979659960222
893,27.0317090067356
926,27.3883773154254
959,25.8815559827795
992,25.8750675953728
1025,26.8362930059878
1058,26.6430352071013
1091,26.7058626096078
1124,26.7477566769887
1157,26.9365644281764
1190,26.6305843037103
1223,26.8182261462216
1256,26.7367748086169
1289,27.1679211655501
1322,26.957507885878
1355,27.0577104541423
1388,26.9742305435715
1421,26.3521285269751
1577,512050.741415891
1578,2.22168301591477
1579,512052.963098907
1821,9.47309369460175
1835,9.47309369460175
1869,80.0813668031307
2,1, 7,17, 1, 2,50.00,55.00,Thursday       
6,25.05
7,23.8608763110374
8,90.75
9,3.64166666666667
10,220.
751,17.
752,5.
753,1.91666666666667
754,0.0
1580,15.6
1581,82.2
1582,6.7
1583,27.
1584,0.5
827,25.557974193105
860,26.9137561471445
893,27.0523927438863
926,27.4118196311873
959,25.8874412425697
992,25.8819961471608
1025,26.8435684062754
1058,26.6545608469969
1091,26.7130493863877
1124,26.7596326795712
1157,26.9467427768646
1190,26.6456265483833
1223,26.8283409406935
1256,26.7518390266784
1289,27.1798068441041
1322,26.9730797578985
1355,27.0696978992269
1388,26.9906553043895
1421,26.3532376998911
1577,512050.741415891
1578,2.22284230880153
1579,512052.9642582
1821,9.47309369460175
1835,9.47309369460175
1869,80.0813668031307
2,1, 7,17, 1, 2,55.00,60.00,Thursday       
6,25.
7,23.8449880142566
8,91.
9,3.6
10,220.
751,17.
752,5.
753,2.
754,0.0
1580,15.6
1581,82.2
1582,6.7
1583,27.
1584,0.5
827,25.5613875882548
860,26.9288521900483
893,27.0724663911947
926,27.4344903045413
959,25.8930675209548
992,25.8886949991795
1025,26.849944953878
1058,26.6648493253464
1091,26.7193914481952
1124,26.770173178014
1157,26.9560815020012
1190,26.6596220224902
1223,26.8376650089128
1256,26.7657067795116
1289,27.1907284821425
1322,26.9875302162331
1355,27.0807598453587
1388,27.0058468121494
1421,26.3536705087313
1577,512050.741415891
1578,2.22434534570528
1579,512052.965761237
1821,9.47309369460175
1835,9.47309369460175
1869,80.0813668031307
2,1, 7,17, 1, 3, 0.00, 5.00,Thursday       
6,24.95
7,23.7962228348999
8,91.
9,3.51666666666667
10,220.
751,17.
752,5.
753,2.08333333333333
754,0.0
1580,15.6
1581,82.2
1582,6.7
1583,27.
1584,0.5
827,25.5647399874144
860,26.9431887758696
893,27.0918013253093
926,27.4562440104732
959,25.8984431197826
992,25.8951585849677
1025,26.855297920515
1058,26.6738242709261
1091,26.7247779049094
1124,26.7792925210405
1157,26.964405370408
1190,26.6723583956325
1223,26.8460500081532
1256,26.778211387332
1289,27.2005221262976
1322,27.0006591091482
1355,27.0907543041254
1388,27.0195831756072
1421,26.3534434581937
1577,512050.741415891
1578,2.22617647726135
1579,512052.967592369
1821,9.47309369460175
1835,9.47309369460175
1869,80.0813668031307
2,1, 7,17, 1, 3, 5.00,10.00,Thursday       
6,24.9
7,23.7474609976683
8,91.
9,3.43333333333333
10,220.
751,17.
752,5.
753,2.16666666666667
754,0.0
1580,15.6
1581,82.2
1582,6.7
1583,27.
1584,0.5
827,25.5680550099033
860,26.9569418532133
893,27.1106073629421
926,27.4773120422074
959,25.9035983581323
992,25.9014210378552
1025,26.8597983565276
1058,26.6816920663197
1091,26.7293638519949
1124,26.7872160543715
1157,26.9718952846563
1190,26.6840439511294
1223,26.8536604612016
1256,26.7895834952372
1289,27.2093667026585
1322,27.0126633538598
1355,27.0998495278963
1388,27.0320788467885
1421,26.3525841599439
1577,512050.741415891
1578,2.22832120582242
1579,512052.969737097
1821,9.47309369460175
1835,9.47309369460175
1869,80.0813668031307
2,1, 7,17, 1, 3,10.00,15.00,Thursday       
6,24.85
7,23.6987037881252
8,91.
9,3.35
10,220.
751,17.
752,5.
753,2.25
754,0.0
1580,15.6
1581,82.2
1582,6.7
1583,27.
1584,0.5
827,25.5713434072941
860,26.9702210504372
893,27.1290070949244
926,27.4978294464027
959,25.9085763698779
992,25.9075311259693
1025,26.8635935828535
1058,26.6886462673985
1091,26.7332841343655
1124,26.7941560644184
1157,26.9787051121585
1190,26.6948731650397
1223,26.8606359754359
1256,26.8000337983999
1289,27.2174213813925
1322,27.0237340500519
1355,27.1081932569776
1388,27.043546582826
1421,26.3512223682138
1577,512050.741415891
1578,2.22857718294368
1579,512052.969993074
1821,9.47309369460175
1835,9.47309369460175
1869,80.0813668031307
2,1, 7,17, 1, 3,15.00,20.00,Thursday       
6,24.8
7,23.6499420742781
8,91.
9,3.26666666666667
10,220.
751,17.
752,5.
753,2.33333333333333
754,0.0
1580,15.6
1581,82.2
1582,6.7
1583,27.
1584,0.5
827,25.5746076578384
860,26.9830720190173
893,27.1470391334818
926,27.5178405667075
959,25.9134021463255
992,25.9135160821579
1025,26.8667351271204
1058,26.6947479944456
1091,26.7365875329452
1124,26.8001793873169
1157,26.984884785074
1190,26.7049011286353
1223,26.867022032306
1256,26.8096234590192
1289,27.2247388474504
1322,27.033927951704
1355,27.1158343727944
1388,27.0540516284213
1421,26.3493719147857
1577,512050.741415891
1578,2.22659934911361
1579,512052.96801524
1821,9.47309369460175
1835,9.47309369460175
1869,80.0813668031307
2,1, 7,17, 1, 3,20.00,25.00,Thursday       
6,24.75
7,23.601189263233
8,91.
9,3.18333333333333
10,220.
751,17.
752,5.
753,2.41666666666667
754,0.0
1580,15.6
1581,82.2
1582,6.7
1583,27.
1584,0.5
827,25.5771239067009
860,26.992733097975
893,27.1607583989948
926,26.7001811785335
959,25.9170362169031
992,25.9180730176224
1025,26.8687385519421
1058,26.6989292306181
1091,26.7387378807912
1124,26.804260028502
1157,26.9892680370494
1190,26.7121723675982
1223,26.871589405084
1256,26.8165149482415
1289,25.9642238342233
1322,24.8541730322687
1355,26.0148156339334
1388,24.4499503504008
1421,26.4444744291322
1577,512050.741415891
1578,159897.535644043
1579,671948.277059934
1821,6.7
1835,6.7
1869,80.0813668031307
2,1, 7,17, 1, 3,25.00,30.00,Thursday       
6,24.7
7,23.5524271005121
8,91.
9,3.1
10,220.
751,17.
752,5.
753,2.5
754,0.0
1580,15.6
1581,82.2
1582,6.7
1583,27.
1584,0.5
827,25.5803702168842
860,27.0050581702723
893,27.1784206897767
926,25.9355765058161
959,25.9216710404808
992,25.9239294240997
1025,26.8709239105957
1058,26.703791100116
1091,26.7411369685085
1124,26.8089509970934
1157,26.994548598893
1190,26.7210641436888
1223,26.8771348849543
1256,26.8248785484524
1289,25.1076898837667
1322,23.7031851606093
1355,25.2320406466624
1388,23.2136569996003
1421,26.2836578277341
1577,512050.741415891
1578,161537.268333269
1579,673588.00974916
1821,6.7
1835,6.7
1869,80.0813668031307
2,1, 7,17, 1, 3,30.00,35.00,Thursday       
6,24.65
7,23.5036715474043
8,91.
9,3.01666666666667
10,220.
751,17.
752,5.
753,2.58333333333333
754,0.0
1580,15.6
1581,82.2
1582,6.7
1583,27.
1584,0.5
827,25.5836035002896
860,27.0170999443372
893,27.1958673554106
926,25.5038429669677
959,25.9262253045104
992,25.9297433653888
1025,26.8726316022275
1058,26.7080316979128
1091,26.743082536988
1124,26.8129779758162
1157,26.9993732068506
1190,26.7293755757652
1223,26.8822526588148
1256,26.8326202331084
1289,24.7641420106233
1322,23.3404734402381
1355,24.9063029018741
1388,22.8538148496403
1421,26.0477234024812
1577,512050.741415891
1578,161706.628703427
1579,673757.370119318
1821,6.7
1835,6.7
1869,80.0813668031307
2,1, 7,17, 1, 3,35.00,40.00,Thursday       
6,24.6
7,23.4549110331083
8,91.
9,2.93333333333333
10,220.
751,17.
752,5.
753,2.66666666666667
754,0.0
1580,15.6
1581,82.2
1582,6.7
1583,27.
1584,0.5
827,25.5875340168932
860,27.0314168116721
893,27.2168349390968
926,25.2316187190642
959,25.9316926783354
992,25.9367838672312
1025,26.8741155141183
1058,26.712415334416
1091,26.7448842564835
1124,26.8170522477856
1157,27.0046601420921
1190,26.7387406590878
1223,26.8879318303343
1256,26.8412452677949
1289,24.5740460786511
1322,23.1407273806774
1355,24.7235964156053
1388,22.6512531998659
1421,25.8346041180698
1577,512050.741415891
1578,161113.416090583
1579,673164.157506474
1821,6.7
1835,6.7
1869,80.0813668031307
2,1, 7,17, 1, 3,40.00,45.00,Thursday       
6,24.55
7,23.4061575250279
8,91.
9,2.85
10,220.
751,17.
752,5.
753,2.75
754,0.0
1580,15.6
1581,82.2
1582,6.7
1583,27.
1584,0.5
827,25.5907235923853
860,27.0427365195469
893,27.2336062865124
926,25.1143340934143
959,25.9360433877139
992,25.9424456625057
1025,26.8748296979734
1058,26.7153523995004
1091,26.7458769284818
1124,26.8197000225094
1157,27.0084789741725
1190,26.74575749033
1223,26.8920949521319
1256,26.8476220206417
1289,24.4857230816346
1322,23.0390798900967
1355,24.6391469448021
1388,22.543851586456
1421,25.7184182694277
1577,512050.741415891
1578,160148.107837059
1579,672198.84925295
1821,6.7
1835,6.7
1869,80.0813668031307
2,1, 7,17, 1, 3,45.00,50.00,Thursday       
6,24.5
7,23.3574035923313
8,91.
9,2.76666666666667
10,220.
751,17.
752,5.
753,2.83333333333333
754,0.0
1580,15.6
1581,82.2
1582,6.7
1583,27.
1584,0.5
827,25.5938983313697
860,27.0537750904042
893,27.2501115992259
926,25.0373811911589
959,25.9403060284934
992,25.9480365320994
1025,26.8751452003831
1058,26.7177665482283
1091,26.7464853832282
1124,26.8217969129779
1157,27.0118867010479
1190,26.7522449430919
1223,26.8958661916725
1256,26.8534435145135
1289,24.418536737641
1322,22.9584609169483
1355,24.5761819530894
1388,22.45739840677
1421,25.6283064675778
1577,512050.741415891
1578,158811.263220111
1579,670862.004636002
1821,6.7
1835,6.7
1869,80.0813668031307
2,1, 7,17, 1, 3,50.00,55.00,Thursday       
6,24.45
7,23.308653132904
8,91.
9,2.68333333333333
10,220.
751,17.
752,5.
753,2.91666666666667
754,0.0
1580,15.6
1581,82.2
1582,6.7
1583,27.
1584,0.5
827,25.5963518989892
860,27.0621359392855
893,27.262721555455
926,25.6653219121881
959,25.9435442000192
992,25.9523208635783
1025,26.8751134693015
1058,26.7192876847244
1091,26.7466900246461
1124,26.8230538989723
1157,27.0142513887119
1190,26.7569296284076
1223,26.8985245440342
1256,26.8575935899691
1289,25.3229081868055
1322,24.3550296581883
1355,25.3870192214032
1388,24.0549356196296
1421,25.7896981982632
1577,512050.741415891
1578,2.22271228776734
1579,512052.964128179
1821,9.70280971197077
1835,9.70280971197077
1869,80.0813668031307
2,1, 7,17, 1, 3,55.00,60.00,Thursday       
6,24.4
7,23.2598896225196
8,91.
9,2.6
10,220.
751,17.
752,5.
753,3.
754,0.0
1580,15.6
1581,82.2
1582,6.7
1583,27.
1584,0.5
827,25.5995063231264
860,27.0727481450481
893,27.2788285615241
926,26.1977608155296
959,25.9476718699361
992,25.9578063183887
1025,26.8748089797902
1058,26.7208911093862
1091,26.7466965509464
1124,26.8243020969636
1157,27.017008980229
1190,26.7625815888738
1223,26.901672783504
1256,26.8625440011486
1289,25.9589593550075
1322,25.2856950484969
1355,25.9613841574866
1388,25.1014163772597
1421,25.9031171175993
1577,512050.741415891
1578,2.2237900658498
1579,512052.965205957
1821,9.70280971197077
1835,9.70280971197077
1869,80.0813668031307
2,1, 7,17, 1, 4, 0.00, 5.00,Thursday       
6,24.3583333333333
7,23.2084795524834
8,90.9166666666667
9,2.64166666666667
10,221.666666666667
751,17.
752,5.
753,3.08333333333333
754,0.0
1580,15.6
1581,82.2
1582,6.7
1583,27.
1584,0.5
827,25.6026499233094
860,27.0831366596961
893,27.2947186633323
926,26.5453639533758
959,25.9517662587868
992,25.963273640682
1025,26.8747030575009
1058,26.7225477005504
1091,26.7468812031486
1124,26.8256001892625
1157,27.0200549524878
1190,26.768344152497
1223,26.9050312905716
1256,26.8676931346855
1289,26.2974708240194
1322,25.7631228492572
1355,26.2691721343262
1388,25.633009601664
1421,25.9559208680188
1577,524272.939218089
1578,2.22521595276162
1579,524275.164434042
1821,9.70280971197077
1835,9.70280971197077
1869,80.0813668031307