Program Version,EnergyPlus-Linux-64 8.1.0.008, YMD=2016.11.22 18:53
1,5,Environment Title[],Latitude[deg],Longitude[deg],Time Zone[],Elevation[m]
2,6,Day of Simulation[],Month[],Day of Month[],DST Indicator[1=yes 0=no],Hour[],StartMinute[],EndMinute[],DayType
3,3,Cumulative Day of Simulation[],Month[],Day of Month[],DST Indicator[1=yes 0=no],DayType  ! When Daily Report Variables Requested
4,2,Cumulative Days of Simulation[],Month[]  ! When Monthly Report Variables Requested
5,1,Cumulative Days of Simulation[] ! When Run Period Report Variables Requested
6,1,Environment,Site Outdoor Air Drybulb Temperature [C] !TimeStep
7,1,Environment,Site Outdoor Air Wetbulb Temperature [C] !TimeStep
8,1,Environment,Site Outdoor Air Relative Humidity [%] !TimeStep
9,1,Environment,Site Wind Speed [m/s] !TimeStep
10,1,Environment,Site Wind Direction [deg] !TimeStep
751,1,EMS,currentDayOfMonth [] !TimeStep
752,1,EMS,currentDayOfWeek [] !TimeStep
753,1,EMS,currentTimeOfDay [] !TimeStep
754,1,EMS,currentHoliday [] !TimeStep
827,1,BASEMENT,Zone Air Temperature [C] !TimeStep
860,1,CORE_BOTTOM,Zone Air Temperature [C] !TimeStep
893,1,CORE_MID,Zone Air Temperature [C] !TimeStep
926,1,CORE_TOP,Zone Air Temperature [C] !TimeStep
959,1,GROUNDFLOOR_PLENUM,Zone Air Temperature [C] !TimeStep
992,1,MIDFLOOR_PLENUM,Zone Air Temperature [C] !TimeStep
1025,1,PERIMETER_BOT_ZN_1,Zone Air Temperature [C] !TimeStep
1058,1,PERIMETER_BOT_ZN_2,Zone Air Temperature [C] !TimeStep
1091,1,PERIMETER_BOT_ZN_3,Zone Air Temperature [C] !TimeStep
1124,1,PERIMETER_BOT_ZN_4,Zone Air Temperature [C] !TimeStep
1157,1,PERIMETER_MID_ZN_1,Zone Air Temperature [C] !TimeStep
1190,1,PERIMETER_MID_ZN_2,Zone Air Temperature [C] !TimeStep
1223,1,PERIMETER_MID_ZN_3,Zone Air Temperature [C] !TimeStep
1256,1,PERIMETER_MID_ZN_4,Zone Air Temperature [C] !TimeStep
1289,1,PERIMETER_TOP_ZN_1,Zone Air Temperature [C] !TimeStep
1322,1,PERIMETER_TOP_ZN_2,Zone Air Temperature [C] !TimeStep
1355,1,PERIMETER_TOP_ZN_3,Zone Air Temperature [C] !TimeStep
1388,1,PERIMETER_TOP_ZN_4,Zone Air Temperature [C] !TimeStep
1421,1,TOPFLOOR_PLENUM,Zone Air Temperature [C] !TimeStep
1577,1,Whole Building,Facility Total Building Electric Demand Power [W] !TimeStep
1578,1,Whole Building,Facility Total HVAC Electric Demand Power [W] !TimeStep
1579,1,Whole Building,Facility Total Electric Demand Power [W] !TimeStep
1580,1,HTGSETP_SCH,Schedule Value [] !TimeStep
1581,1,HW-LOOP-TEMP-SCHEDULE,Schedule Value [] !TimeStep
1582,1,CW-LOOP-TEMP-SCHEDULE,Schedule Value [] !TimeStep
1583,1,CLGSETP_SCH,Schedule Value [] !TimeStep
1584,1,BLDG_LIGHT_SCH,Schedule Value [] !TimeStep
1821,1,COOLSYS1 CHILLER 1,Chiller Evaporator Outlet Temperature [C] !TimeStep
1835,1,COOLSYS1 CHILLER 2,Chiller Evaporator Outlet Temperature [C] !TimeStep
1869,1,HEATSYS1 BOILER,Boiler Outlet Temperature [C] !TimeStep
End of Data Dictionary
1,587017 587017 587017 TMY2 WMO#=587017,  41.99, -87.50,  -6.00, 172.00
2,1, 7, 1, 1, 1, 0.00, 5.00,Thursday       
6,17.975
7,15.2354946580499
8,75.5
9,6.2
10,58.3333333333333
751,1.
752,5.
753,8.333333333333333E-002
754,0.0
1580,15.6
1581,82.2
1582,6.7
1583,26.7
1584,0.7
827,24.7400329326211
860,25.1083055118077
893,25.124131535991
926,24.8343345423333
959,24.5397085084032
992,24.4014096677426
1025,23.9975284898983
1058,23.0655073754073
1091,24.0669427707587
1124,23.1889542762948
1157,23.6975679098757
1190,22.5208223644267
1223,23.8097378790216
1256,22.7757048347767
1289,23.3872097544589
1322,22.2973271585762
1355,23.4401084150413
1388,22.4269556591998
1421,22.7814943848658
1577,611732.195552267
1578,2.25729726016038
1579,611734.452849527
1821,8.88464160404025
1835,8.88464160404025
1869,61.1090580821649
2,1, 7, 1, 1, 1, 5.00,10.00,Thursday       
6,18.05
7,15.3633608488761
8,76.
9,6.2
10,56.6666666666667
751,1.
752,5.
753,0.166666666666667
754,0.0
1580,15.6
1581,82.2
1582,6.7
1583,26.7
1584,0.3
827,24.942972388582
860,25.4122788816811
893,25.4313670256487
926,25.1303628776723
959,24.6465332160439
992,24.5155524464707
1025,24.2314617934637
1058,23.4386751085798
1091,24.2738559450005
1124,23.5938344060052
1157,23.939500809803
1190,22.8862079358916
1223,24.0179989992999
1256,23.1800473854106
1289,23.6234847886357
1322,22.6436809289527
1355,23.6515819539672
1388,22.8254568153634
1421,22.7895769786954
1577,412369.287279515
1578,2.25526427908854
1579,412371.542543794
1821,8.88464160404025
1835,8.88464160404025
1869,61.1090580821649
2,1, 7, 1, 1, 1,10.00,15.00,Thursday       
6,18.125
7,15.4913846268264
8,76.5
9,6.2
10,55.
751,1.
752,5.
753,0.25
754,0.0
1580,15.6
1581,82.2
1582,6.7
1583,26.7
1584,0.3
827,25.0968379838853
860,25.6795984181384
893,25.6925351900137
926,25.3557418751914
959,24.7366620131452
992,24.6114846423191
1025,24.3821912585699
1058,23.6898237986403
1091,24.4050851507563
1124,23.8659659676148
1157,24.0944195677335
1190,23.1309270462249
1223,24.1489630232609
1256,23.4485009478411
1289,23.7723403006663
1322,22.8721507189317
1355,23.7832478854622
1388,23.0877110206192
1421,22.7977537288887
1577,412369.287279515
1578,2.25378449722419
1579,412371.541064012
1821,8.88464160404025
1835,8.88464160404025
1869,61.1090580821649
2,1, 7, 1, 1, 1,15.00,20.00,Thursday       
6,18.2
7,15.6195481718555
8,77.
9,6.2
10,53.3333333333333
751,1.
752,5.
753,0.333333333333333
754,0.0
1580,15.6
1581,82.2
1582,6.7
1583,26.7
1584,0.3
827,25.1725928752458
860,25.8341823395119
893,25.8448900963578
926,25.4817459791566
959,24.7872428682442
992,24.6651985466595
1025,24.4583162417931
1058,23.8184408139184
1091,24.4713474867202
1124,24.004477382226
1157,24.1715197596739
1190,23.2558860227433
1223,24.2141438479356
1256,23.5831571898766
1289,23.844316293124
1322,22.9862789884315
1355,23.8472155099467
1388,23.2171104800813
1421,22.805162616138
1577,412369.287279515
1578,2.25277348077694
1579,412371.540052996
1821,8.88464160404025
1835,8.88464160404025
1869,61.1090580821649
2,1, 7, 1, 1, 1,20.00,25.00,Thursday       
6,18.275
7,15.7478625242542
8,77.5
9,6.2
10,51.6666666666667
751,1.
752,5.
753,0.416666666666667
754,0.0
1580,15.6
1581,82.2
1582,6.7
1583,26.7
1584,0.3
827,25.2223951092365
860,25.9448645378983
893,25.9548355185406
926,25.5714818456294
959,24.8268716429154
992,24.7071889909592
1025,24.5147089487298
1058,23.914199703799
1091,24.520619163444
1124,24.1069862547855
1157,24.2280072389345
1190,23.3491984392368
1223,24.2621464894841
1256,23.6819773832524
1289,23.8956620511684
1322,23.0697701212821
1355,23.8928691787937
1388,23.310562072049
1421,22.8142187793367
1577,412369.287279515
1578,2.25223140057278
1579,412371.539510916
1821,8.88464160404025
1835,8.88464160404025
1869,61.1090580821649
2,1, 7, 1, 1, 1,25.00,30.00,Thursday       
6,18.35
7,15.8763211324651
8,78.
9,6.2
10,50.
751,1.
752,5.
753,0.5
754,0.0
1580,15.6
1581,82.2
1582,6.7
1583,26.7
1584,0.3
827,25.2541133660809
860,26.0253378332603
893,26.0353343708643
926,25.6358382604746
959,24.85938886228
992,24.7415539062464
1025,24.5595124864329
1058,23.9901784616202
1091,24.5600098321348
1124,24.1877796025151
1157,24.2725061679814
1190,23.4237819858743
1223,24.3002662070232
1256,23.7595277367636
1289,23.9351651323837
1322,23.1351112653463
1355,23.9271054094633
1388,23.3826812257565
1421,22.8250315916699
1577,412369.287279515
1578,2.25213288154501
1579,412371.539412396
1821,8.88464160404025
1835,8.88464160404025
1869,61.1090580821649
2,1, 7, 1, 1, 1,30.00,35.00,Thursday       
6,18.425
7,16.0049231946173
8,78.5
9,6.2
10,48.3333333333333
751,1.
752,5.
753,0.583333333333333
754,0.0
1580,15.6
1581,82.2
1582,6.7
1583,26.7
1584,0.3
827,25.2740883983827
860,26.0855137033786
893,26.0959955586565
926,25.6830835126574
959,24.8869892525197
992,24.770666445683
1025,24.5971947614654
1058,24.0536371311845
1091,24.5933938464293
1124,24.2548075811273
1157,24.3097516027281
1190,23.4868512535754
1223,24.3324776902621
1256,23.8238922379803
1289,23.9669724278391
1322,23.1892553274333
1355,23.9544588650509
1388,23.4416269548129
1421,22.8368556767528
1577,412369.287279515
1578,2.25245464413089
1579,412371.539734159
1821,8.88464160404025
1835,8.88464160404025
1869,61.1090580821649
2,1, 7, 1, 1, 1,35.00,40.00,Thursday       
6,18.5
7,16.1336730112579
8,79.
9,6.2
10,46.6666666666667
751,1.
752,5.
753,0.666666666666667
754,0.0
1580,15.6
1581,82.2
1582,6.7
1583,26.7
1584,0.3
827,25.2867664957065
860,26.1320050535788
893,26.1432763961203
926,25.7188106253038
959,24.9108938973781
992,24.7958694506962
1025,24.6302244115795
1058,24.1086095914222
1091,24.6229119836826
1124,24.3124303498582
1157,24.3423665038154
1190,23.5428304389658
1223,24.3609955757824
1256,23.8795166938156
1289,23.9937978367837
1322,23.2361672142586
1355,23.9776305910445
1388,23.4919274877002
1421,22.8494397251068
1577,412369.287279515
1578,2.25317529092181
1579,412371.540454806
1821,8.88464160404025
1835,8.88464160404025
1869,61.1090580821649
2,1, 7, 1, 1, 1,40.00,45.00,Thursday       
6,18.575
7,16.2625599436324
8,79.5
9,6.2
10,45.
751,1.
752,5.
753,0.75
754,0.0
1580,15.6
1581,82.2
1582,6.7
1583,26.7
1584,0.3
827,25.2949549388551
860,26.1691255567378
893,26.1814142099314
926,25.7467176493134
959,24.9318879273349
992,24.8179529006317
1025,24.6600842766203
1058,24.1576390764467
1091,24.6498243332347
1124,24.3634299844766
1157,24.3719069503491
1190,23.59371061046
1223,24.3871166345815
1256,23.9291818974662
1289,24.017420336717
1322,23.2783311535837
1355,23.998198334966
1388,23.5364154955618
1421,22.8622685637008
1577,412369.287279515
1578,2.25427511937396
1579,412371.541554634
1821,8.88464160404025
1835,8.88464160404025
1869,61.1090580821649
2,1, 7, 1, 1, 1,45.00,50.00,Thursday       
6,18.65
7,16.3915878090175
8,80.
9,6.2
10,43.3333333333333
751,1.
752,5.
753,0.833333333333333
754,0.0
1580,15.6
1581,82.2
1582,6.7
1583,26.7
1584,0.3
827,25.3003848380073
860,26.199683274998
893,26.2131799017992
926,25.7692290225088
959,24.9505122792854
992,24.8374951194549
1025,24.6876319963424
1058,24.2022446530136
1091,24.6748599137501
1124,24.4094115253708
1157,24.3992743362617
1190,23.6404725877429
1223,24.4115339115904
1256,23.9745056312847
1289,24.0388871689555
1322,23.3175165174419
1355,24.0170699745115
1388,23.5767413583995
1421,22.8752824149759
1577,412369.287279515
1578,2.25573595691055
1579,412371.543015472
1821,8.88464160404025
1835,8.88464160404025
1869,61.1090580821649
2,1, 7, 1, 1, 1,50.00,55.00,Thursday       
6,18.725
7,16.5207492700153
8,80.5
9,6.2
10,41.6666666666667
751,1.
752,5.
753,0.916666666666667
754,0.0
1580,15.6
1581,82.2
1582,6.7
1583,26.7
1584,0.3
827,25.3041130209605
860,26.2255244112387
893,26.2404005694877
926,25.7879474819016
959,24.9671849595132
992,24.8549527581912
1025,24.7134422604201
1058,24.2435474994216
1091,24.6984902593287
1124,24.4515633112469
1157,24.4250584822123
1190,23.6840197185018
1223,24.4347050269711
1256,24.0166810758274
1289,24.0588641249794
1322,23.3542885493292
1355,24.0347928576029
1388,23.6140846201968
1421,22.8882561028408
1577,412369.287279515
1578,2.25754101532932
1579,412371.54482053
1821,8.88464160404025
1835,8.88464160404025
1869,61.1090580821649
2,1, 7, 1, 1, 1,55.00,60.00,Thursday       
6,18.8
7,16.6500447251102
8,81.
9,6.2
10,40.
751,1.
752,5.
753,1.
754,0.0
1580,15.6
1581,82.2
1582,6.7
1583,26.7
1584,0.3
827,25.3067832876793
860,26.2478830246752
893,26.264298647795
926,25.8039404215788
959,24.9822421557605
992,24.8706923344462
1025,24.7378593240575
1058,24.2824278454175
1091,24.7209999401493
1124,24.4905834646829
1157,24.4496148454423
1190,23.7250256048785
1223,24.4569222860511
1256,24.0566078888598
1289,24.077742027857
1322,23.389082449765
1355,24.051688491376
1388,23.6492016242513
1421,22.9012381612097
1577,412369.287279515
1578,2.25967476190914
1579,412371.546954277
1821,8.88464160404025
1835,8.88464160404025
1869,61.1090580821649
2,1, 7, 1, 1, 2, 0.00, 5.00,Thursday       
6,18.7833333333333
7,16.6245143652169
8,80.9166666666667
9,6.24166666666667
10,40.
751,1.
752,5.
753,1.08333333333333
754,0.0
1580,15.6
1581,82.2
1582,6.7
1583,26.7
1584,0.3
827,25.3087884768568
860,26.2675964485294
893,26.2857020837165
926,25.8179292793372
959,24.9954157053305
992,24.8844888699726
1025,24.7567369536968
1058,24.3142917100937
1091,24.7381747563973
1124,24.5224035835082
1157,24.4687548577773
1190,23.7593239658233
1223,24.4739193575978
1256,24.089796608312
1289,24.0914356439296
1322,23.4175233446433
1355,24.0635980226812
1388,23.6781588080385
1421,22.9081789764318
1577,412369.287279515
1578,2.26113195805497
1579,412371.548411473
1821,8.88464160404025
1835,8.88464160404025
1869,61.1090580821649
2,1, 7, 1, 1, 2, 5.00,10.00,Thursday       
6,18.7666666666667
7,16.5989903585216
8,80.8333333333333
9,6.28333333333333
10,40.
751,1.
752,5.
753,1.16666666666667
754,0.0
1580,15.6
1581,82.2
1582,6.7
1583,26.7
1584,0.3
827,25.3103705182289
860,26.2852493207406
893,26.3051868160427
926,25.8303944506778
959,25.0070553795879
992,24.896736013381
1025,24.7719025200064
1058,24.3409927082346
1091,24.7518087076593
1124,24.5492086291464
1157,24.4842136115608
1190,23.7889237636298
1223,24.4873434385029
1256,24.1180058239146
1289,24.101646282975
1322,23.4412099419901
1355,24.0721598647321
1388,23.7023092398356
1421,22.9119933393032
1577,412369.287279515
1578,2.26028269065201
1579,412371.547562206
1821,8.88464160404025
1835,8.88464160404025
1869,61.1090580821649
2,1, 7, 1, 1, 2,10.00,15.00,Thursday       
6,18.75
7,16.573479163266
8,80.75
9,6.325
10,40.
751,1.
752,5.
753,1.25
754,0.0
1580,15.6
1581,82.2
1582,6.7
1583,26.7
1584,0.3
827,25.3116792495716
860,26.3012531721295
893,26.3231552653184
926,25.8416419168089
959,25.0174374849136
992,24.9077244113826
1025,24.7844540308458
1058,24.3638490256908
1091,24.7629863757495
1124,24.5723044003024
1157,24.4971004594174
1190,23.8146667456796
1223,24.4982894487768
1256,24.142466355594
1289,24.1094758701328
1322,23.4612941251753
1355,24.0784557828332
1388,23.722677453243
1421,22.913926588175
1577,412369.287279515
1578,2.25825057530828
1579,412371.54553009
1821,8.88464160404025
1835,8.88464160404025
1869,61.1090580821649
2,1, 7, 1, 1, 2,15.00,20.00,Thursday       
6,18.7333333333333
7,16.5479570239757
8,80.6666666666667
9,6.36666666666667
10,40.
751,1.
752,5.
753,1.33333333333333
754,0.0
1580,15.6
1581,82.2
1582,6.7
1583,26.7
1584,0.3
827,25.3128040238788
860,26.3157800346074
893,26.3397468512162
926,25.8517921122978
959,25.0267523471891
992,24.91766237857
1025,24.7949522827288
1058,24.3835685683222
1091,24.7722727865373
1124,24.5923082853903
1157,24.5080012065405
1190,23.8370889037528
1223,24.507367344473
1256,24.1638274138874
1289,24.1155215580178
1322,23.4784841373356
1355,24.0830897234127
1388,23.7399319940933
1421,22.9146174692985
1577,412369.287279515
1578,2.2567469578667
1579,412371.544026473
1821,8.88464160404025
1835,8.88464160404025
1869,61.1090580821649
2,1, 7, 1, 1, 2,20.00,25.00,Thursday       
6,18.7166666666667
7,16.5224532493266
8,80.5833333333333
9,6.40833333333333
10,40.
751,1.
752,5.
753,1.41666666666667
754,0.0
1580,15.6
1581,82.2
1582,6.7
1583,26.7
1584,0.3
827,25.313808845205
860,26.3291550758891
893,26.355293891633
926,25.8610667963005
959,25.0351844856749
992,24.926777070218
1025,24.8038776185074
1058,24.400861585225
1091,24.7801287859019
1124,24.6098759471388
1157,24.5174021616606
1190,23.8568383009997
1223,24.5150496762727
1256,24.1827354036787
1289,24.1202258178015
1322,23.4933645497537
1355,24.0864862008183
1388,23.7547190474442
1421,22.9144411779677
1577,412369.287279515
1578,2.25574139425838
1579,412371.543020909
1821,8.88464160404025
1835,8.88464160404025
1869,61.1090580821649
2,1, 7, 1, 1, 2,25.00,30.00,Thursday       
6,18.7
7,16.4969556451875
8,80.5
9,6.45
10,40.
751,1.
752,5.
753,1.5
754,0.0
1580,15.6
1581,82.2
1582,6.7
1583,26.7
1584,0.3
827,25.3147334090429
860,26.3415988109564
893,26.3700166078776
926,25.8696199450167
959,25.0429012159278
992,24.9350364765609
1025,24.8115225088928
1058,24.416160679834
1091,24.7868337051934
1124,24.6253869951749
1157,24.5256002050527
1190,23.8744080823114
1223,24.5216325197754
1256,24.1995951928944
1289,24.1238525498719
1322,23.5063388734941
1355,24.0889007122482
1388,23.7674559666501
1421,22.9136114364098
1577,412369.287279515
1578,2.25520607093565
1579,412371.542485586
1821,8.88464160404025
1835,8.88464160404025
1869,61.1090580821649
2,1, 7, 1, 1, 2,30.00,35.00,Thursday       
6,18.6833333333333
7,16.4714539709493
8,80.4166666666667
9,6.49166666666667
10,40.
751,1.
752,5.
753,1.58333333333333
754,0.0
1580,15.6
1581,82.2
1582,6.7
1583,26.7
1584,0.3
827,25.3156023006619
860,26.3532423006107
893,26.3840376932642
926,25.8775463060152
959,25.05001676284
992,24.9424289264793
1025,24.8181283903011
1058,24.429806107684
1091,24.7925849435688
1124,24.6391661407333
1157,24.5328083338869
1190,23.8901784272376
1223,24.5273191650664
1256,24.21474180845
1289,24.1265933093581
1322,23.5177196837993
1355,24.090512655993
1388,23.7784901573545
1421,22.9122775957164
1577,412369.287279515
1578,2.25511552391808
1579,412371.542395039
1821,8.88464160404025
1835,8.88464160404025
1869,61.1090580821649
2,1, 7, 1, 1, 2,35.00,40.00,Thursday       
6,18.6666666666667
7,16.4459638707905
8,80.3333333333333
9,6.53333333333333
10,40.
751,1.
752,5.
753,1.66666666666667
754,0.0
1580,15.6
1581,82.2
1582,6.7
1583,26.7
1584,0.3
827,25.3164319769649
860,26.3641877929079
893,26.3974503072235
926,25.884922037999
959,25.0564365905579
992,24.9490752326718
1025,24.8238249861801
1058,24.4420026509963
1091,24.7975075923133
1124,24.6513965214758
1157,24.5391605553821
1190,23.9044206664947
1223,24.5322443562832
1256,24.2283788818928
1289,24.1285685675542
1322,23.5277085240084
1355,24.0914377072524
1388,23.7880379542401
1421,22.9105265778601
1577,412369.287279515
1578,2.25544639374451
1579,412371.542725909
1821,8.88464160404025
1835,8.88464160404025
1869,61.1090580821649
2,1, 7, 1, 1, 2,40.00,45.00,Thursday       
6,18.65
7,16.4204807948266
8,80.25
9,6.575
10,40.
751,1.
752,5.
753,1.75
754,0.0
1580,15.6
1581,82.2
1582,6.7
1583,26.7
1584,0.3
827,25.3172336740769
860,26.3745180627098
893,26.4103279520699
926,25.8918101342766
959,25.0622309864297
992,24.9551028725865
1025,24.8287398968655
1058,24.4529579921005
1091,24.8017404088641
1124,24.662291385639
1157,24.5447745001902
1190,23.9173655576456
1223,24.5365201582654
1256,24.2407179310422
1289,24.1298876203625
1322,23.5364277057726
1355,24.0917755109166
1388,23.7963157798251
1421,22.9084343560791
1577,412369.287279515
1578,2.25617721104605
1579,412371.543456726
1821,8.88464160404025
1835,8.88464160404025
1869,61.1090580821649
2,1, 7, 1, 1, 2,45.00,50.00,Thursday       
6,18.6333333333333
7,16.395004600264
8,80.1666666666667
9,6.61666666666667
10,40.
751,1.
752,5.
753,1.83333333333333
754,0.0
1580,15.6
1581,82.2
1582,6.7
1583,26.7
1584,0.3
827,25.3180152387625
860,26.3843015256761
893,26.422730621794
926,25.8982640500696
959,25.0674837208397
992,24.9606213374296
1025,24.8329501697444
1058,24.4627942331373
1091,24.8053546580733
1124,24.6719676422406
1157,24.5497461631027
1190,23.9291769720524
1223,24.5402234438286
1256,24.2518852173985
1289,24.1306197964756
1322,23.5440098847691
1355,24.0915924281084
1388,23.8034555725562
1421,22.9060467683805
1577,412369.287279515
1578,2.25728820833064
1579,412371.544567723
1821,8.88464160404025
1835,8.88464160404025
1869,61.1090580821649
2,1, 7, 1, 1, 2,50.00,55.00,Thursday       
6,18.6166666666667
7,16.3695240684941
8,80.0833333333333
9,6.65833333333333
10,40.
751,1.
752,5.
753,1.91666666666667
754,0.0
1580,15.6
1581,82.2
1582,6.7
1583,26.7
1584,0.3
827,25.3187822752354
860,26.3935957141345
893,26.4347086030791
926,25.9043293047778
959,25.0722789773732
992,24.9657251717537
1025,24.8365424096935
1058,24.4716540462304
1091,24.8084264896896
1124,24.6805812413156
1157,24.5541604796765
1190,23.940004787663
1223,24.5434258842404
1256,24.2620292918174
1289,24.1308345895119
1322,23.5506075927372
1355,24.0909535893678
1388,23.8096063574943
1421,22.9034110882005
1577,412369.287279515
1578,2.25876115428641
1579,412371.546040669
1821,8.88464160404025
1835,8.88464160404025
1869,61.1090580821649
2,1, 7, 1, 1, 2,55.00,60.00,Thursday       
6,18.6
7,16.3440620892701
8,80.
9,6.7
10,40.
751,1.
752,5.
753,2.
754,0.0
1580,15.6
1581,82.2
1582,6.7
1583,26.7
1584,0.3
827,25.3195388733059
860,26.4024499856093
893,26.4463049903838
926,25.9100453653274
959,25.0766883613287
992,24.9704886703162
1025,24.8395672660264
1058,24.4796186532101
1091,24.8110038683889
1124,24.6882149659419
1157,24.5580683897775
1190,23.9499545430102
1223,24.5461773623282
1256,24.2712362908778
1289,24.1305901953528
1322,23.5563057826616
1355,24.0899026151155
1388,23.8148563324154
1421,22.9005586725298
1577,412369.287279515
1578,2.26057920749774
1579,412371.547858722
1821,8.88464160404025
1835,8.88464160404025
1869,61.1090580821649
2,1, 7, 1, 1, 3, 0.00, 5.00,Thursday       
6,18.575
7,16.271628397723
8,79.5833333333333
9,6.74166666666667
10,40.
751,1.
752,5.
753,2.08333333333333
754,0.0
1580,15.6
1581,82.2
1582,6.7
1583,26.7
1584,0.3
827,25.3202880318035
860,26.4109067039796
893,26.457556461212
926,25.9154460965325
959,25.0807257643873
992,24.974924623543
1025,24.8416800861241
1058,24.4863752917331
1091,24.8127349427188
1124,24.6945665346547
1157,24.5611427343054
1190,23.9587436415095
1223,24.548152058966
1256,24.2792189218877
1289,24.1295676894182
1322,23.5608084259201
1355,24.0881233891073
1388,23.8189262773262
1421,22.896966258709
1577,412369.287279515
1578,2.26272678695146
1579,412371.550006302
1821,8.88464160404025
1835,8.88464160404025
1869,61.1090580821649
2,1, 7, 1, 1, 3, 5.00,10.00,Thursday       
6,18.55
7,16.1991741869116
8,79.1666666666667
9,6.78333333333333
10,40.
751,1.
752,5.
753,2.16666666666667
754,0.0
1580,15.6
1581,82.2
1582,6.7
1583,26.7
1584,0.3
827,25.3210320766946
860,26.4190034740153
893,26.4684957372746
926,25.9205602089582
959,25.0844562927845
992,24.979095949158
1025,24.843025287522
1058,24.4920682022302
1091,24.8137458091721
1124,24.6997877858882
1157,24.563486591023
1190,23.9664881628698
1223,24.5494374252018
1256,24.2860967495723
1289,24.1278667069363
1322,23.5641971945897
1355,24.0857053902765
1388,23.8219321871792
1421,22.8929247191689
1577,412369.287279515
1578,2.26319891800269
1579,412371.550478433
1821,8.88464160404025
1835,8.88464160404025
1869,61.1090580821649
2,1, 7, 1, 1, 3,10.00,15.00,Thursday       
6,18.525
7,16.1267164845799
8,78.75
9,6.825
10,40.
751,1.
752,5.
753,2.25
754,0.0
1580,15.6
1581,82.2
1582,6.7
1583,26.7
1584,0.3
827,25.3217727898103
860,26.4267730575381
893,26.4791510760506
926,25.9254101414127
959,25.0879334167073
992,24.983052222883
1025,24.8437713452256
1058,24.496894968704
1091,24.8141976349336
1124,24.7040963237135
1157,24.565253224978
1190,23.9733608294029
1223,24.5501905363661
1256,24.2920618378416
1289,24.1256320619177
1322,23.5666174661996
1355,24.0827811126498
1388,23.824059106808
1421,22.8885766827634
1577,412369.287279515
1578,2.2614264287809
1579,412371.548705944
1821,8.88464160404025
1835,8.88464160404025
1869,61.1090580821649
2,1, 7, 1, 1, 3,15.00,20.00,Thursday       
6,18.5
7,16.0542389395372
8,78.3333333333333
9,6.86666666666667
10,40.
751,1.
752,5.
753,2.33333333333333
754,0.0
1580,15.6
1581,82.2
1582,6.7
1583,26.7
1584,0.3
827,25.3225115502977
860,26.4342444566986
893,26.4895472685501
926,25.9300151215603
959,25.0911977357164
992,24.9868301296066
1025,24.8440152200534
1058,24.5009665011405
1091,24.8141843212147
1124,24.7076124261623
1157,24.5665405416669
1190,23.9794834819197
1223,24.5505075269704
1256,24.2972332078115
1289,24.1229550197256
1322,23.5682345342869
1355,24.0794448828503
1388,23.8254224861288
1421,22.88399797172
1577,412369.287279515
1578,2.25949527158436
1579,412371.546774787
1821,8.88464160404025
1835,8.88464160404025
1869,61.1090580821649
2,1, 7, 1, 1, 3,20.00,25.00,Thursday       
6,18.475
7,15.9817420360495
8,77.9166666666667
9,6.90833333333333
10,40.
751,1.
752,5.
753,2.41666666666667
754,0.0
1580,15.6
1581,82.2
1582,6.7
1583,26.7
1584,0.3
827,25.3232494315866
860,26.4414435942586
893,26.4997063023305
926,25.9343929563507
959,25.0942835684001
992,24.9904600436566
1025,24.8438384152004
1058,24.5043874552937
1091,24.8137787881845
1124,24.7104589632488
1157,24.5674278091238
1190,23.9849594952187
1223,24.5504634907472
1256,24.3017259218349
1289,24.1199078599632
1322,23.5691719690912
1355,24.0757707113017
1388,23.8261322797818
1421,22.8792396480587
1577,412369.287279515
1578,2.25808759811861
1579,412371.545367113
1821,8.88464160404025
1835,8.88464160404025
1869,61.1090580821649
2,1, 7, 1, 1, 3,25.00,30.00,Thursday       
6,18.45
7,15.9092446047834
8,77.5
9,6.95
10,40.
751,1.
752,5.
753,2.5
754,0.0
1580,15.6
1581,82.2
1582,6.7
1583,26.7
1584,0.3
827,25.323987270858
860,26.4483938363286
893,26.5096478673664
926,25.938560554657
959,25.0972169686049
992,24.9939647005523
1025,24.8432875180448
1058,24.5072137291994
1091,24.8130367971288
1124,24.7127008794829
1157,24.5679626063532
1190,23.9898560879502
1223,24.550106674166
1256,24.3056052889061
1289,24.1165332829865
1322,23.5695253407191
1355,24.0718011402855
1388,23.8262503855626
1421,22.8743311185503
1577,412369.287279515
1578,2.25717341289355
1579,412371.544452928
1821,8.88464160404025
1835,8.88464160404025
1869,61.1090580821649
2,1, 7, 1, 1, 3,30.00,35.00,Thursday       
6,18.425
7,15.8367167446067
8,77.0833333333333
9,6.99166666666667
10,40.
751,1.
752,5.
753,2.58333333333333
754,0.0
1580,15.6
1581,82.2
1582,6.7
1583,26.7
1584,0.3
827,25.3247257202231
860,26.4551162677123
893,26.5193896290873
926,25.9425336809225
959,25.1000204843372
992,24.9973635373712
1025,24.8424121357315
1058,24.5095108821475
1091,24.8120021751322
1124,24.7144207126219
1157,24.568191300008
1190,23.9942371151112
1223,24.5494790810697
1256,24.3089463989957
1289,24.11287283209
1322,23.5693702296961
1355,24.0675746272034
1388,23.8258468444537
1421,22.8692977184651
1577,412369.287279515
1578,2.25672530243594
1579,412371.544004817
1821,8.88464160404025
1835,8.88464160404025
1869,61.1090580821649
2,1, 7, 1, 1, 3,35.00,40.00,Thursday       
6,18.4
7,15.7641830352416
8,76.6666666666667
9,7.03333333333333
10,40.
751,1.
752,5.
753,2.66666666666667
754,0.0
1580,15.6
1581,82.2
1582,6.7
1583,26.7
1584,0.3
827,25.325465285195
860,26.4616299775615
893,26.5289474966339
926,25.9463269927384
959,25.1027112943136
992,25.0006712488523
1025,24.8412405552944
1058,24.511310288911
1091,24.8107016276778
1124,24.7156603007523
1157,24.5681418213034
1190,23.9981436151762
1223,24.5486085597421
1256,24.3117902085154
1289,24.1089513550453
1322,23.5687646763848
1355,24.0631152258632
1388,23.8249585175262
1421,22.8641550166404
1577,412369.287279515
1578,2.25671816061463
1579,412371.543997676
1821,8.88464160404025
1835,8.88464160404025
1869,61.1090580821649
2,1, 7, 1, 1, 3,40.00,45.00,Thursday       
6,18.375
7,15.6916388219739
8,76.25
9,7.075
10,40.
751,1.
752,5.
753,2.75
754,0.0
1580,15.6
1581,82.2
1582,6.7
1583,26.7
1584,0.3
827,25.3262063540823
860,26.4679522230557
893,26.5383357809507
926,25.9499538650532
959,25.1053046386051
992,25.0039007430453
1025,24.8398081092038
1058,24.5126531309774
1091,24.809165989065
1124,24.7164809080649
1157,24.5678458674712
1190,24.0016188635631
1223,24.5475226921875
1256,24.3141903487806
1289,24.1047973395084
1322,23.5677601202505
1355,24.0584484773466
1388,23.8236322731301
1421,22.858918524061
1577,412369.287279515
1578,2.25712894893768
1579,412371.544408464
1821,8.88464160404025
1835,8.88464160404025
1869,61.1090580821649
2,1, 7, 1, 1, 3,45.00,50.00,Thursday       
6,18.35
7,15.6190725812228
8,75.8333333333333
9,7.11666666666667
10,40.
751,1.
752,5.
753,2.83333333333333
754,0.0
1580,15.6
1581,82.2
1582,6.7
1583,26.7
1584,0.3
827,25.3269492207602
860,26.4740986378382
893,26.5475673857644
926,25.9534265110947
959,25.1078122229699
992,25.007061914853
1025,24.8381345945042
1058,24.5135468473086
1091,24.8074135212728
1124,24.7169122753425
1157,24.5673222490166
1190,24.0046895034733
1223,24.5462400133442
1256,24.3161740375536
1289,24.1004276173965
1322,23.5663941901212
1355,24.0535904345457
1388,23.8218846845926
1421,22.8535979016072
1577,412369.287279515
1578,2.25793648669264
1579,412371.545216002
1821,8.88464160404025
1835,8.88464160404025
1869,61.1090580821649
2,1, 7, 1, 1, 3,50.00,55.00,Thursday       
6,18.325
7,15.5465032067868
8,75.4166666666667
9,7.15833333333333
10,40.
751,1.
752,5.
753,2.91666666666667
754,0.0
1580,15.6
1581,82.2
1582,6.7
1583,26.7
1584,0.3
827,25.3276941025451
860,26.4800833586787
893,26.5566539277987
926,25.9567559437112
959,25.1102446737771
992,25.010163633716
1025,24.8362471962045
1058,24.5139643731168
1091,24.8054676504528
1124,24.717002115997
1157,24.566594578002
1190,24.0073857078443
1223,24.5447805524211
1256,24.3177799347054
1289,24.0958635496701
1322,23.5647023028193
1355,24.04855996424
1388,23.8197829678435
1421,22.8482036473619
1577,412369.287279515
1578,2.25912126664808
1579,412371.546400782
1821,8.88464160404025
1835,8.88464160404025
1869,61.1090580821649
2,1, 7, 1, 1, 3,55.00,60.00,Thursday       
6,18.3
7,15.4739129019553
8,75.
9,7.2
10,40.
751,1.
752,5.
753,3.
754,0.0
1580,15.6
1581,82.2
1582,6.7
1583,26.7
1584,0.3
827,25.3284411543945
860,26.4859191942022
893,26.5656058883499
926,25.9599521299526
959,25.1126102533077
992,25.0132128318546
1025,24.8341608816533
1058,24.5140999585061
1091,24.8033421013028
1124,24.7167727741579
1157,24.5656765718032
1190,24.0097240072681
1223,24.5431577728633
1256,24.3190234034557
1289,24.0911174908958
1322,23.5627092384146
1355,24.043368804672
1388,23.8174534283122
1421,22.8427418651598
1577,412369.287279515
1578,2.26066529272813
1579,412371.547944808
1821,8.88464160404025
1835,8.88464160404025
1869,61.1090580821649
2,1, 7, 1, 1, 4, 0.00, 5.00,Thursday       
6,18.275
7,15.4112331026178
8,74.6666666666667
9,7.24166666666667
10,40.
751,1.
752,5.
753,3.08333333333333
754,0.0
1580,15.6
1581,82.2
1582,6.7
1583,26.7
1584,0.3
827,25.3291904853986
860,26.4916177604467
893,26.5744327724268
926,25.9630240202643
959,25.1149168121506
992,25.0162160283988
1025,24.8319047947249
1058,24.5140162416631
1091,24.8010627411151
1124,24.7162700075493
1157,24.5645922649535
1190,24.0117282669241
1223,24.541391817183
1256,24.3199283056145
1289,24.0862112077185