Program Version,EnergyPlus-Linux-64 8.1.0.008, YMD=2016.11.22 03:07
1,5,Environment Title[],Latitude[deg],Longitude[deg],Time Zone[],Elevation[m]
2,6,Day of Simulation[],Month[],Day of Month[],DST Indicator[1=yes 0=no],Hour[],StartMinute[],EndMinute[],DayType
3,3,Cumulative Day of Simulation[],Month[],Day of Month[],DST Indicator[1=yes 0=no],DayType  ! When Daily Report Variables Requested
4,2,Cumulative Days of Simulation[],Month[]  ! When Monthly Report Variables Requested
5,1,Cumulative Days of Simulation[] ! When Run Period Report Variables Requested
6,1,Environment,Site Outdoor Air Drybulb Temperature [C] !TimeStep
7,1,Environment,Site Outdoor Air Wetbulb Temperature [C] !TimeStep
8,1,Environment,Site Outdoor Air Relative Humidity [%] !TimeStep
9,1,Environment,Site Wind Speed [m/s] !TimeStep
10,1,Environment,Site Wind Direction [deg] !TimeStep
751,1,EMS,currentDayOfMonth [] !TimeStep
752,1,EMS,currentDayOfWeek [] !TimeStep
753,1,EMS,currentTimeOfDay [] !TimeStep
754,1,EMS,currentHoliday [] !TimeStep
827,1,BASEMENT,Zone Air Temperature [C] !TimeStep
860,1,CORE_BOTTOM,Zone Air Temperature [C] !TimeStep
893,1,CORE_MID,Zone Air Temperature [C] !TimeStep
926,1,CORE_TOP,Zone Air Temperature [C] !TimeStep
959,1,GROUNDFLOOR_PLENUM,Zone Air Temperature [C] !TimeStep
992,1,MIDFLOOR_PLENUM,Zone Air Temperature [C] !TimeStep
1025,1,PERIMETER_BOT_ZN_1,Zone Air Temperature [C] !TimeStep
1058,1,PERIMETER_BOT_ZN_2,Zone Air Temperature [C] !TimeStep
1091,1,PERIMETER_BOT_ZN_3,Zone Air Temperature [C] !TimeStep
1124,1,PERIMETER_BOT_ZN_4,Zone Air Temperature [C] !TimeStep
1157,1,PERIMETER_MID_ZN_1,Zone Air Temperature [C] !TimeStep
1190,1,PERIMETER_MID_ZN_2,Zone Air Temperature [C] !TimeStep
1223,1,PERIMETER_MID_ZN_3,Zone Air Temperature [C] !TimeStep
1256,1,PERIMETER_MID_ZN_4,Zone Air Temperature [C] !TimeStep
1289,1,PERIMETER_TOP_ZN_1,Zone Air Temperature [C] !TimeStep
1322,1,PERIMETER_TOP_ZN_2,Zone Air Temperature [C] !TimeStep
1355,1,PERIMETER_TOP_ZN_3,Zone Air Temperature [C] !TimeStep
1388,1,PERIMETER_TOP_ZN_4,Zone Air Temperature [C] !TimeStep
1421,1,TOPFLOOR_PLENUM,Zone Air Temperature [C] !TimeStep
1577,1,Whole Building,Facility Total Building Electric Demand Power [W] !TimeStep
1578,1,Whole Building,Facility Total HVAC Electric Demand Power [W] !TimeStep
1579,1,Whole Building,Facility Total Electric Demand Power [W] !TimeStep
1580,1,HTGSETP_SCH,Schedule Value [] !TimeStep
1581,1,HW-LOOP-TEMP-SCHEDULE,Schedule Value [] !TimeStep
1582,1,CW-LOOP-TEMP-SCHEDULE,Schedule Value [] !TimeStep
1583,1,CLGSETP_SCH,Schedule Value [] !TimeStep
1584,1,BLDG_LIGHT_SCH,Schedule Value [] !TimeStep
1821,1,COOLSYS1 CHILLER 1,Chiller Evaporator Outlet Temperature [C] !TimeStep
1835,1,COOLSYS1 CHILLER 2,Chiller Evaporator Outlet Temperature [C] !TimeStep
1869,1,HEATSYS1 BOILER,Boiler Outlet Temperature [C] !TimeStep
End of Data Dictionary
1,587017 587017 587017 TMY2 WMO#=587017,  41.99, -87.50,  -6.00, 172.00
2,1, 7, 1, 1, 1, 0.00, 5.00,Thursday       
6,17.975
7,15.2354946580499
8,75.5
9,6.2
10,58.3333333333333
751,1.
752,5.
753,8.333333333333333E-002
754,0.0
1580,15.6
1581,82.2
1582,6.7
1583,26.7
1584,0.7
827,24.7400329326211
860,25.1083055118077
893,25.124131535991
926,24.8343345423333
959,24.5397085084032
992,24.4014096677426
1025,23.9975284898983
1058,23.0655073754073
1091,24.0669427707587
1124,23.1889542762948
1157,23.6975679098757
1190,22.5208223644267
1223,23.8097378790216
1256,22.7757048347767
1289,23.3872097544589
1322,22.2973271585762
1355,23.4401084150413
1388,22.4269556591998
1421,22.7814943848658
1577,611732.195552267
1578,2.25729726016038
1579,611734.452849527
1821,8.88464160404025
1835,8.88464160404025
1869,61.1090580821649
2,1, 7, 1, 1, 1, 5.00,10.00,Thursday       
6,18.05
7,15.3633608488761
8,76.
9,6.2
10,56.6666666666667
751,1.
752,5.
753,0.166666666666667
754,0.0
1580,15.6
1581,82.2
1582,6.7
1583,26.7
1584,0.7
827,24.9864437586251
860,25.4598809795448
893,25.4792619951939
926,25.1800438234131
959,24.6481126148183
992,24.5171682053745
1025,24.2782466367618
1058,23.4858439134816
1091,24.320435307591
1124,23.6412669777037
1157,23.9860718251285
1190,22.9327806113723
1223,24.0642368865105
1256,23.2271799230094
1289,23.6698204808141
1322,22.6900598406264
1355,23.6979376131355
1388,22.8724131670367
1421,22.7917960872701
1577,611732.195552267
1578,2.25526427908854
1579,611734.450816546
1821,8.88464160404025
1835,8.88464160404025
1869,61.1090580821649
2,1, 7, 1, 1, 1,10.00,15.00,Thursday       
6,18.125
7,15.4913846268264
8,76.5
9,6.2
10,55.
751,1.
752,5.
753,0.25
754,0.0
1580,15.6
1581,82.2
1582,6.7
1583,26.7
1584,0.7
827,25.2045308961128
860,25.7884970193442
893,25.8055481339226
926,25.4737438050039
959,24.7448385321055
992,24.6197983729513
1025,24.4878127185885
1058,23.7950668837484
1091,24.5105440564586
1124,23.9713699177962
1157,24.1993884976518
1190,23.2347280311237
1223,24.2535304316172
1256,23.5529928791099
1289,23.8768225648847
1322,22.9756088139133
1355,23.8875077534344
1388,23.1918369258387
1421,22.8090571164533
1577,611732.195552267
1578,2.25378449722419
1579,611734.449336765
1821,8.88464160404025
1835,8.88464160404025
1869,61.1090580821649
2,1, 7, 1, 1, 1,15.00,20.00,Thursday       
6,18.2
7,15.6195481718555
8,77.
9,6.2
10,53.3333333333333
751,1.
752,5.
753,0.333333333333333
754,0.0
1580,15.6
1581,82.2
1582,6.7
1583,26.7
1584,0.7
827,25.3179053687843
860,25.9913124211587
893,26.0045422490682
926,25.643373340276
959,24.8041597614176
992,24.6823248754243
1025,24.5978418377949
1058,23.9571263950016
1091,24.610792267639
1124,24.1429937194066
1157,24.3101675034172
1190,23.3928991248028
1223,24.3525015357877
1256,23.7204602083519
1289,23.9824060189342
1322,23.1228846581734
1355,23.9851170019022
1388,23.3539827669503
1421,22.8284338164608
1577,611732.195552267
1578,2.25277348077694
1579,611734.448325748
1821,8.88464160404025
1835,8.88464160404025
1869,61.1090580821649
2,1, 7, 1, 1, 1,20.00,25.00,Thursday       
6,18.275
7,15.7478625242542
8,77.5
9,6.2
10,51.6666666666667
751,1.
752,5.
753,0.416666666666667
754,0.0
1580,15.6
1581,82.2
1582,6.7
1583,26.7
1584,0.7
827,25.3904607093808
860,26.1410489681146
893,26.1526789039531
926,25.7709021648482
959,24.8534001132452
992,24.7339805426972
1025,24.6813169226418
1058,24.0799692687129
1091,24.6871378168596
1124,24.2721723970977
1157,24.3936036666321
1190,23.5133466512123
1223,24.4275303446907
1256,23.845789629833
1289,24.0607234459164
1322,23.2334119944171
1355,24.0579205501246
1388,23.4739198276681
1421,22.850256652341
1577,611732.195552267
1578,2.25223140057278
1579,611734.447783668
1821,8.88464160404025
1835,8.88464160404025
1869,61.1090580821649
2,1, 7, 1, 1, 1,25.00,30.00,Thursday       
6,18.35
7,15.8763211324651
8,78.
9,6.2
10,50.
751,1.
752,5.
753,0.5
754,0.0
1580,15.6
1581,82.2
1582,6.7
1583,26.7
1584,0.7
827,25.4372273189027
860,26.2526519358428
893,26.2638591071823
926,25.8660360166589
959,24.8955751093585
992,24.7780097267097
1025,24.7487264898994
1058,24.1789418049409
1091,24.7490533676768
1124,24.3754286025774
1157,24.4606861026262
1190,23.6113286192888
1223,24.4883344000378
1256,23.9458235267429
1289,24.1229259466332
1322,23.3219915380741
1355,24.1145540384327
1388,23.5685624944689
1421,22.8737930350313
1577,611732.195552267
1578,2.25213288154501
1579,611734.447685149
1821,8.88464160404025
1835,8.88464160404025
1869,61.1090580821649
2,1, 7, 1, 1, 1,30.00,35.00,Thursday       
6,18.425
7,16.0049231946173
8,78.5
9,6.2
10,48.3333333333333
751,1.
752,5.
753,0.583333333333333
754,0.0
1580,15.6
1581,82.2
1582,6.7
1583,26.7
1584,0.7
827,25.4681451993114
860,26.3380568131671
893,26.3496081498903
926,25.9387784262399
959,24.9324879109062
992,24.8164022214115
1025,24.8059492535232
1058,24.2626863376876
1091,24.8018408352858
1124,24.4620464084709
1157,24.5175632558585
1190,23.6957305625712
1223,24.5401809003187
1256,24.0300010879851
1289,24.1744442631556
1322,23.397030737631
1355,24.1612079407878
1388,23.6474327931389
1421,22.8978420989534
1577,611732.195552267
1578,2.25245464413089
1579,611734.448006911
1821,8.88464160404025
1835,8.88464160404025
1869,61.1090580821649
2,1, 7, 1, 1, 1,35.00,40.00,Thursday       
6,18.5
7,16.1336730112579
8,79.
9,6.2
10,46.6666666666667
751,1.
752,5.
753,0.666666666666667
754,0.0
1580,15.6
1581,82.2
1582,6.7
1583,26.7
1584,0.7
827,25.4894411358774
860,26.405386858115
893,26.4178237450513
926,25.9960973764377
959,24.9652177223348
992,24.8503492654765
1025,24.8562174654646
1058,24.3360998502908
1091,24.84842568492
1124,24.5370846775162
1157,24.5676272118121
1190,23.7713863206472
1223,24.5860232711242
1256,24.1035037780341
1289,24.2187711645635
1322,23.4633764895974
1355,24.2014739753325
1388,23.7157955457967
1421,22.9220563617946
1577,611732.195552267
1578,2.25317529092181
1579,611734.448727558
1821,8.88464160404025
1835,8.88464160404025
1869,61.1090580821649
2,1, 7, 1, 1, 1,40.00,45.00,Thursday       
6,18.575
7,16.2625599436324
8,79.5
9,6.2
10,45.
751,1.
752,5.
753,0.75
754,0.0
1580,15.6
1581,82.2
1582,6.7
1583,26.7
1584,0.7
827,25.504905813483
860,26.4602674409879
893,26.4740158978401
926,26.0428695030316
959,24.9945671450936
992,24.8807515105347
1025,24.9016594895365
1058,24.4024786155362
1091,24.8907145296914
1124,24.6040013736525
1157,24.613070870509
1190,23.8402016529173
1223,24.6277979247534
1256,24.1698452898908
1289,24.2583329254008
1322,23.5242784717834
1355,24.2376041931891
1388,23.7771475195267
1421,22.9459578975733
1577,611732.195552267
1578,2.25427511937396
1579,611734.449827387
1821,8.88464160404025
1835,8.88464160404025
1869,61.1090580821649
2,1, 7, 1, 1, 1,45.00,50.00,Thursday       
6,18.65
7,16.3915878090175
8,80.
9,6.2
10,43.3333333333333
751,1.
752,5.
753,0.833333333333333
754,0.0
1580,15.6
1581,82.2
1582,6.7
1583,26.7
1584,0.7
827,25.5167945392288
860,26.5063776533876
893,26.5217996884422
926,26.0823117868503
959,25.0211690926151
992,24.9083401975467
1025,24.9435297516343
1058,24.4623537891797
1091,24.929836469475
1124,24.6648484585278
1157,24.6551858627115
1190,23.9042851101969
1223,24.6666680883761
1256,24.2314226341299
1289,24.2945792224463
1322,23.5806765703751
1355,24.2709070676697
1388,23.8336525537748
1421,22.9695863151463
1577,611732.195552267
1578,2.25573595691055
1579,611734.451288224
1821,8.88464160404025
1835,8.88464160404025
1869,61.1090580821649
2,1, 7, 1, 1, 1,50.00,55.00,Thursday       
6,18.725
7,16.5207492700153
8,80.5
9,6.2
10,41.6666666666667
751,1.
752,5.
753,0.916666666666667
754,0.0
1580,15.6
1581,82.2
1582,6.7
1583,26.7
1584,0.7
827,25.5264453197349
860,26.5461136673001
893,26.563529912729
926,26.1165308794038
959,25.0455995084336
992,24.9337949530891
1025,24.9826755454746
1058,24.516930094294
1091,24.9665321207011
1124,24.7213478172265
1157,24.6948180762874
1190,23.9637575762529
1223,24.7033803236324
1256,24.2890364393262
1289,24.3284410220054
1322,23.6337202623444
1355,24.3021925817231
1388,23.8871138030185
1421,22.9927561104382
1577,611732.195552267
1578,2.25754101532932
1579,611734.453093283
1821,8.88464160404025
1835,8.88464160404025
1869,61.1090580821649
2,1, 7, 1, 1, 1,55.00,60.00,Thursday       
6,18.8
7,16.6500447251102
8,81.
9,6.2
10,40.
751,1.
752,5.
753,1.
754,0.0
1580,15.6
1581,82.2
1582,6.7
1583,26.7
1584,0.7
827,25.5346597842248
860,26.581086854389
893,26.6007874132636
926,26.1469349349842
959,25.0680331971276
992,24.9568878208515
1025,25.0196226225794
1058,24.5671260797245
1091,25.0012624212477
1124,24.774028756217
1157,24.7324922078555
1190,24.0187834852582
1223,24.7384055541559
1256,24.3431371851637
1289,24.3604788596525
1322,23.6843816652788
1355,24.3319424480972
1388,23.937608787036
1421,23.0155640754933
1577,611732.195552267
1578,2.25967476190914
1579,611734.455227029
1821,8.88464160404025
1835,8.88464160404025
1869,61.1090580821649
2,1, 7, 1, 1, 2, 0.00, 5.00,Thursday       
6,18.7833333333333
7,16.6245143652169
8,80.9166666666667
9,6.24166666666667
10,40.
751,1.
752,5.
753,1.08333333333333
754,0.0
1580,15.6
1581,82.2
1582,6.7
1583,26.7
1584,0.7
827,25.5419225395796
860,26.6123970704593
893,26.6346459228025
926,26.1744778612457
959,25.0871839932089
992,24.976547605646
1025,25.0502143544176
1058,24.608960619334
1091,25.0297945697078
1124,24.8181798109764
1157,24.7639734109958
1190,24.0649960495857
1223,24.7674463851645
1256,24.3894369916459
1289,24.3865604982361
1322,23.7272800155942
1355,24.3559492050162
1388,23.9802265342232
1421,23.0320011622229
1577,611732.195552267
1578,2.26113195805497
1579,611734.456684225
1821,8.88464160404025
1835,8.88464160404025
1869,61.1090580821649
2,1, 7, 1, 1, 2, 5.00,10.00,Thursday       
6,18.7666666666667
7,16.5989903585216
8,80.8333333333333
9,6.28333333333333
10,40.
751,1.
752,5.
753,1.16666666666667
754,0.0
1580,15.6
1581,82.2
1582,6.7
1583,26.7
1584,0.7
827,25.5485340896326
860,26.6408193621981
893,26.6658564455533
926,26.1998067237157
959,25.1035477682842
992,24.9933668907907
1025,25.0764028971316
1058,24.6450106550359
1091,25.0540786100813
1124,24.8561561740292
1157,24.7911318172532
1190,24.1047581513214
1223,24.7923097321146
1256,24.430076302591
1289,24.4085616476686
1322,23.7641122538774
1355,24.3760370149646
1388,24.0169958571672
1421,23.0450221880741
1577,611732.195552267
1578,2.26028269065201
1579,611734.455834958
1821,8.88464160404025
1835,8.88464160404025
1869,61.1090580821649
2,1, 7, 1, 1, 2,10.00,15.00,Thursday       
6,18.75
7,16.573479163266
8,80.75
9,6.325
10,40.
751,1.
752,5.
753,1.25
754,0.0
1580,15.6
1581,82.2
1582,6.7
1583,26.7
1584,0.7
827,25.5546836082114
860,26.666902179596
893,26.6949445958849
926,26.2233474504061
959,25.1176609023482
992,25.0079173976168
1025,25.0993229725025
1058,24.6767942852681
1091,25.0752573456325
1124,24.8894785133356
1157,24.8151110829246
1190,24.1397004129154
1223,24.8141420534582
1256,24.4667033089422
1289,24.4276401154426
1322,23.795968749184
1355,24.393352352829
1388,24.0493450907005
1421,23.0559060968565
1577,611732.195552267
1578,2.25825057530828
1579,611734.453802843
1821,8.88464160404025
1835,8.88464160404025
1869,61.1090580821649
2,1, 7, 1, 1, 2,15.00,20.00,Thursday       
6,18.7333333333333
7,16.5479570239757
8,80.6666666666667
9,6.36666666666667
10,40.
751,1.
752,5.
753,1.33333333333333
754,0.0
1580,15.6
1581,82.2
1582,6.7
1583,26.7
1584,0.7
827,25.5604933426283
860,26.6910446454968
893,26.7222883574523
926,26.245394264023
959,25.1299865239767
992,25.0206845069253
1025,25.1196275429294
1058,24.7051872262801
1091,25.0939995883831
1124,24.9190480164336
1157,24.8365864167195
1190,24.1708810715296
1223,24.8336292527326
1256,24.4995205557674
1289,24.4444636671243
1322,23.8238034758958
1355,24.408555896247
1388,24.0783085816898
1421,23.0653291223425
1577,611732.195552267
1578,2.2567469578667
1579,611734.452299225
1821,8.88464160404025
1835,8.88464160404025
1869,61.1090580821649
2,1, 7, 1, 1, 2,20.00,25.00,Thursday       
6,18.7166666666667
7,16.5224532493266
8,80.5833333333333
9,6.40833333333333
10,40.
751,1.
752,5.
753,1.41666666666667
754,0.0
1580,15.6
1581,82.2
1582,6.7
1583,26.7
1584,0.7
827,25.5660446576181
860,26.7135470133613
893,26.7481687626273
926,26.266167913736
959,25.1409072385938
992,25.0320657468626
1025,25.1377975984631
1058,24.73085251432
1091,25.1107758375294
1124,24.9455951091144
1157,24.8560365627627
1190,24.1990777357811
1223,24.8512975437456
1256,24.5291059284242
1289,24.4594899757785
1322,23.848456320299
1355,24.4220913515285
1388,24.1043169471527
1421,23.07368325159
1577,611732.195552267
1578,2.25574139425838
1579,611734.451293661
1821,8.88464160404025
1835,8.88464160404025
1869,61.1090580821649
2,1, 7, 1, 1, 2,25.00,30.00,Thursday       
6,18.7
7,16.4969556451875
8,80.5
9,6.45
10,40.
751,1.
752,5.
753,1.5
754,0.0
1580,15.6
1581,82.2
1582,6.7
1583,26.7
1584,0.7
827,25.5713934694791
860,26.7346425457211
893,26.772801670521
926,26.2858423001489
959,25.1507172790854
992,25.0423651800895
1025,25.1541743353587
1058,24.7541842877497
1091,25.1258763740832
1124,24.9695474812083
1157,24.8737659527714
1190,24.2248051323574
1223,24.8673830138274
1256,24.5559036391668
1289,24.4730042354309
1322,23.8705211582355
1355,24.4342319697107
1388,24.1276568865139
1421,23.0811758532473
1577,611732.195552267
1578,2.25520607093565
1579,611734.450758338
1821,8.88464160404025
1835,8.88464160404025
1869,61.1090580821649
2,1, 7, 1, 1, 2,30.00,35.00,Thursday       
6,18.6833333333333
7,16.4714539709493
8,80.4166666666667
9,6.49166666666667
10,40.
751,1.
752,5.
753,1.58333333333333
754,0.0
1580,15.6
1581,82.2
1582,6.7
1583,26.7
1584,0.7
827,25.5765794987158
860,26.7545173937382
893,26.7963574934816
926,26.3045577212667
959,25.1596497809368
992,25.0518212261587
1025,25.1690134534071
1058,24.7755451161297
1091,25.1395819805736
1124,24.9913200856512
1157,24.8900255200159
1190,24.2484784009154
1223,24.8820938175062
1256,24.5803558682061
1289,24.4852399462489
1322,23.8904788755877
1355,24.4451978074763
1388,24.1487200506611
1421,23.0879777614204
1577,611732.195552267
1578,2.25511552391808
1579,611734.450667791
1821,8.88464160404025
1835,8.88464160404025
1869,61.1090580821649
2,1, 7, 1, 1, 2,35.00,40.00,Thursday       
6,18.6666666666667
7,16.4459638707905
8,80.3333333333333
9,6.53333333333333
10,40.
751,1.
752,5.
753,1.66666666666667
754,0.0
1580,15.6
1581,82.2
1582,6.7
1583,26.7
1584,0.7
827,25.5816318945918
860,26.7733235872304
893,26.8189740024687
926,26.3224301378145
959,25.1678785508213
992,25.0606103256499
1025,25.1824795048892
1058,24.7951493231606
1091,25.1520667465607
1124,25.011147120913
1157,24.9049958362958
1190,24.2703656644534
1223,24.8955870170574
1256,24.6027565987908
1289,24.496347187146
1322,23.9086552347286
1355,24.4551316299679
1388,24.1677889370309
1421,23.0941722384662
1577,611732.195552267
1578,2.25544639374451
1579,611734.450998661
1821,8.88464160404025
1835,8.88464160404025
1869,61.1090580821649
2,1, 7, 1, 1, 2,40.00,45.00,Thursday       
6,18.65
7,16.4204807948266
8,80.25
9,6.575
10,40.
751,1.
752,5.
753,1.75
754,0.0
1580,15.6
1581,82.2
1582,6.7
1583,26.7
1584,0.7
827,25.5865727105415
860,26.791187467327
893,26.8407646046386
926,26.3395557722808
959,25.1755419608746
992,25.0688714137549
1025,25.1947390872068
1058,24.8132313267815
1091,25.1634868837514
1124,25.029298479198
1157,24.9188626144744
1190,24.2907573749556
1223,24.9080143892732
1256,24.6234073555248
1289,24.5064769371825
1322,23.9253316254864
1355,24.4641678567747
1388,24.1851576161022
1421,23.0998601591527
1577,611732.195552267
1578,2.25617721104605
1579,611734.451729478
1821,8.88464160404025
1835,8.88464160404025
1869,61.1090580821649
2,1, 7, 1, 1, 2,45.00,50.00,Thursday       
6,18.6333333333333
7,16.395004600264
8,80.1666666666667
9,6.61666666666667
10,40.
751,1.
752,5.
753,1.83333333333333
754,0.0
1580,15.6
1581,82.2
1582,6.7
1583,26.7
1584,0.7
827,25.5913937496519
860,26.8080529957772
893,26.8616171539884
926,26.3558522295795
959,25.1827067988579
992,25.0766613469697
1025,25.2058378976423
1058,24.8298186551207
1091,25.1738807624131
1124,25.0458189129733
1157,24.9316665046964
1190,24.309734809199
1223,24.9194232789216
1256,24.6423981812753
1289,24.5156835639264
1322,23.9406051174989
1355,24.4723347086593
1388,24.2009301940259
1421,23.104989841478
1577,611732.195552267
1578,2.25728820833064
1579,611734.452840476
1821,8.88464160404025
1835,8.88464160404025
1869,61.1090580821649
2,1, 7, 1, 1, 2,50.00,55.00,Thursday       
6,18.6166666666667
7,16.3695240684941
8,80.0833333333333
9,6.65833333333333
10,40.
751,1.
752,5.
753,1.91666666666667
754,0.0
1580,15.6
1581,82.2
1582,6.7
1583,26.7
1584,0.7
827,25.5961337676226
860,26.8241441917994
893,26.8817784670943
926,26.3715161362291
959,25.1894624614044
992,25.084071591783
1025,25.2159622704912
1058,24.8451604642374
1091,25.1834013770255
1124,25.0609760087122
1157,24.9435605603085
1190,24.3275175606557
1223,24.929951451607
1256,24.6600022836705
1289,24.5241074256858
1322,23.9547144301737
1355,24.4797602500244
1388,24.2153675526984
1421,23.109688849107
1577,611732.195552267
1578,2.25876115428641
1579,611734.454313422
1821,8.88464160404025
1835,8.88464160404025
1869,61.1090580821649
2,1, 7, 1, 1, 2,55.00,60.00,Thursday       
6,18.6
7,16.3440620892701
8,80.
9,6.7
10,40.
751,1.
752,5.
753,2.
754,0.0
1580,15.6
1581,82.2
1582,6.7
1583,26.7
1584,0.7
827,25.6008115144321
860,26.8396037737469
893,26.9013979989896
926,26.3866734078438
959,25.1958922643883
992,25.0911882767828
1025,25.2252211110726
1058,24.8593967551742
1091,25.1921469951347
1124,25.0749126614644
1157,24.9546565293024
1190,24.3442719551628
1223,24.9397328718721
1256,24.6763882871694
1289,24.5318438952786
1322,23.9678173415427
1355,24.4865522653073
1388,24.2286350565504
1421,23.1140213797799
1577,611732.195552267
1578,2.26057920749774
1579,611734.456131475
1821,8.88464160404025
1835,8.88464160404025
1869,61.1090580821649
2,1, 7, 1, 1, 3, 0.00, 5.00,Thursday       
6,18.575
7,16.271628397723
8,79.5833333333333
9,6.74166666666667
10,40.
751,1.
752,5.
753,2.08333333333333
754,0.0
1580,15.6
1581,82.2
1582,6.7
1583,26.7
1584,0.7
827,25.6054329831185
860,26.8544957888999
893,26.9205306312634
926,26.4013740246378
959,25.2020124695322
992,25.0980280998555
1025,25.2332957854535
1058,24.8722366540399
1091,25.1997996640829
1124,25.0873521464776
1157,24.9646547418977
1190,24.3597258706957
1223,24.9484674394346
1256,24.6913123602478
1289,24.538591436555
1322,23.9796619500223
1355,24.4924194720044
1388,24.2404949370284
1421,23.1174941451238
1577,611732.195552267
1578,2.26272678695146
1579,611734.458279054
1821,8.88464160404025
1835,8.88464160404025
1869,61.1090580821649
2,1, 7, 1, 1, 3, 5.00,10.00,Thursday       
6,18.55
7,16.1991741869116
8,79.1666666666667
9,6.78333333333333
10,40.
751,1.
752,5.
753,2.16666666666667
754,0.0
1580,15.6
1581,82.2
1582,6.7
1583,26.7
1584,0.7
827,25.6100042510617
860,26.8688737822287
893,26.9392209216412
926,26.4156573641725
959,25.2078838529809
992,25.1046511465362
1025,25.2403208338831
1058,24.8838435762682
1091,25.2065060629728
1124,25.0984598177047
1157,24.9736676361681
1190,24.3740174992077
1223,24.956253821931
1256,24.704921818935
1289,24.5444578406027
1322,23.9903765217134
1355,24.4974608536982
1388,24.2510893937168
1421,23.1204032672892
1577,611732.195552267
1578,2.26319891800269
1579,611734.458751185
1821,8.88464160404025
1835,8.88464160404025
1869,61.1090580821649
2,1, 7, 1, 1, 3,10.00,15.00,Thursday       
6,18.525
7,16.1267164845799
8,78.75
9,6.825
10,40.
751,1.
752,5.
753,2.25
754,0.0
1580,15.6
1581,82.2
1582,6.7
1583,26.7
1584,0.7
827,25.6145307427227
860,26.882783692058
893,26.9575063038849
926,26.4295540582638
959,25.2135510500842
992,25.1111004987675
1025,25.2464879025282
1058,24.8944368026163
1091,25.2124469239483
1124,25.1084693680971
1157,24.9818690260743
1190,24.3873334985983
1223,24.9632462225846
1256,24.7174356300598
1289,24.5496038231102
1322,24.0001439917363
1355,24.501828230356
1388,24.2606282944959
1421,23.1229089256994
1577,611732.195552267
1578,2.2614264287809
1579,611734.456978696
1821,8.88464160404025
1835,8.88464160404025
1869,61.1090580821649
2,1, 7, 1, 1, 3,15.00,20.00,Thursday       
6,18.5
7,16.0542389395372
8,78.3333333333333
9,6.86666666666667
10,40.
751,1.
752,5.
753,2.33333333333333
754,0.0
1580,15.6
1581,82.2
1582,6.7
1583,26.7
1584,0.7
827,25.6190172744213
860,26.8962661944983
893,26.9754196801428
926,26.4430910938083
959,25.2190450683628
992,25.1174056848735
1025,25.2519189230135
1058,24.9041371696518
1091,25.2177342901785
1124,25.1175045772019
1157,24.9893789572085
1190,24.3998045567231
1223,24.9695485825692
1256,24.7289872291323
1289,24.5541353805329
1322,24.0090901541271
1355,24.5056250226396
1388,24.2692413259717
1421,23.1250826548417
1577,611732.195552267
1578,2.25949527158436
1579,611734.455047539
1821,8.88464160404025
1835,8.88464160404025
1869,61.1090580821649
2,1, 7, 1, 1, 3,20.00,25.00,Thursday       
6,18.475
7,15.9817420360495
8,77.9166666666667
9,6.90833333333333
10,40.
751,1.
752,5.
753,2.41666666666667
754,0.0
1580,15.6
1581,82.2
1582,6.7
1583,26.7
1584,0.7
827,25.623468092079
860,26.9093578122799
893,26.9929905805357
926,26.4562934332578
959,25.2243919631055
992,25.1235915143638
1025,25.2567263063629
1058,24.9130650330454
1091,25.2224646963548
1124,25.1256985889263
1157,24.9963025644926
1190,24.4115405888209
1223,24.9753098590688
1256,24.7397083488973
1289,24.5581426828165
1322,24.0173246148654
1355,24.5089381293297
1388,24.2770544985202
1421,23.1269892073701
1577,611732.195552267
1578,2.25808759811861
1579,611734.453639865
1821,8.88464160404025
1835,8.88464160404025
1869,61.1090580821649
2,1, 7, 1, 1, 3,25.00,30.00,Thursday       
6,18.45
7,15.9092446047834
8,77.5
9,6.95
10,40.
751,1.
752,5.
753,2.5
754,0.0
1580,15.6
1581,82.2
1582,6.7
1583,26.7
1584,0.7
827,25.6278869185339
860,26.9220916237648
893,27.0102458056133
926,26.4691850976449
959,25.2296112314257
992,25.1296734197772
1025,25.2609809043847
1058,24.9212852665838
1091,25.2266981520993
1124,25.1331187779098
1157,25.0027083066509
1190,24.4226140407842
1223,24.9806436532097
1256,24.7496724612464
1289,24.5616817430966
1322,24.0249176491911
1355,24.5118220626221
1388,24.2841386907002
1421,23.1286533651803
1577,611732.195552267
1578,2.25717341289355
1579,611734.45272568
1821,8.88464160404025
1835,8.88464160404025
1869,61.1090580821649
2,1, 7, 1, 1, 3,30.00,35.00,Thursday       
6,18.425
7,15.8367167446067
8,77.0833333333333
9,6.99166666666667
10,40.
751,1.
752,5.
753,2.58333333333333
754,0.0
1580,15.6
1581,82.2
1582,6.7
1583,26.7
1584,0.7
827,25.6322770054055
860,26.9344976066526
893,27.0272096996497
926,26.4817883426436
959,25.2347219966349
992,25.1356659419118
1025,25.2647579085403
1058,24.9288794481533
1091,25.2304966460549
1124,25.1398567252407
1157,25.0086638405776
1190,24.4330949666238
1223,24.9855947248764
1256,24.7589661599168
1289,24.5648083413405
1322,24.0319384545871
1355,24.5143299647521
1388,24.2905759243225
1421,23.1301131281263
1577,611732.195552267
1578,2.25672530243594
1579,611734.45227757
1821,8.88464160404025
1835,8.88464160404025
1869,61.1090580821649
2,1, 7, 1, 1, 3,35.00,40.00,Thursday       
6,18.4
7,15.7641830352416
8,76.6666666666667
9,7.03333333333333
10,40.
751,1.
752,5.
753,2.66666666666667
754,0.0
1580,15.6
1581,82.2
1582,6.7
1583,26.7
1584,0.7
827,25.6366411851205
860,26.9466029935716
893,27.0439044163502
926,26.4941241481904
959,25.239734650201
992,25.1415799884406
1025,25.2681036391282
1058,24.9358908390265
1091,25.2338989550063
1124,25.1459569684969
1157,25.0142124191484
1190,24.4430298153011
1223,24.9902017642915
1256,24.7676356781513
1289,24.5675548085983
1322,24.0384320203211
1355,24.516495424328
1388,24.2964102556814
1421,23.1313797763534
1577,611732.195552267
1578,2.25671816061463
1579,611734.452270428
1821,8.88464160404025
1835,8.88464160404025
1869,61.1090580821649
2,1, 7, 1, 1, 3,40.00,45.00,Thursday       
6,18.375
7,15.6916388219739
8,76.25
9,7.075
10,40.
751,1.
752,5.
753,2.75
754,0.0
1580,15.6
1581,82.2
1582,6.7
1583,26.7
1584,0.7
827,25.6409819203
860,26.9584324740904
893,27.0603500598376
926,26.5062115395284
959,25.2446605930536
992,25.1474258910105
1025,25.2710724682905
1058,24.9423814363569
1091,25.2369502231117
1124,25.1514887369355
1157,25.0193985847722
1190,24.4524690576778
1223,24.9945049788337
1256,24.7757434830831
1289,24.5699709017469
1322,24.0444472909287
1355,24.5183555847413
1388,24.3017001154984
1421,23.1324806364109
1577,611732.195552267
1578,2.25712894893768
1579,611734.452681216
1821,8.88464160404025
1835,8.88464160404025
1869,61.1090580821649
2,1, 7, 1, 1, 3,45.00,50.00,Thursday       
6,18.35
7,15.6190725812228
8,75.8333333333333
9,7.11666666666667
10,40.
751,1.
752,5.
753,2.83333333333333
754,0.0
1580,15.6
1581,82.2
1582,6.7
1583,26.7
1584,0.7
827,25.6453013490576
860,26.9700084566504
893,27.076564886119
926,26.5180681692618
959,25.249504671168
992,25.1532115815702
1025,25.2736967810005
1058,24.9483833569934
1091,25.2396783534366
1124,25.156484045497
1157,25.0242638792584
1190,24.4614457790408
1223,24.998530879648
1256,24.7833210554004
1289,24.5720828745597
1322,24.0500161005592
1355,24.5199336276489
1388,24.3064746498357
1421,23.1334213469271
1577,611732.195552267
1578,2.25793648669264
1579,611734.453488754
1821,8.88464160404025
1835,8.88464160404025
1869,61.1090580821649
2,1, 7, 1, 1, 3,50.00,55.00,Thursday       
6,18.325
7,15.5465032067868
8,75.4166666666667
9,7.15833333333333
10,40.
751,1.
752,5.
753,2.91666666666667
754,0.0
1580,15.6
1581,82.2
1582,6.7
1583,26.7
1584,0.7
827,25.6496013256992
860,26.9813512290744
893,27.0925654293069
926,26.5297098481891
959,25.2542738300851
992,25.1589446699641
1025,25.2760177362444
1058,24.9539459695542
1091,25.2421183540619
1124,25.1609970220708
1157,25.0288459113858
1190,24.4699987102086
1223,25.0023086864193
1256,24.790415265485
1289,24.573920945296
1322,24.0551750916152
1355,24.5212573515918
1388,24.3107764564948
1421,23.1342233475566
1577,611732.195552267
1578,2.25912126664808
1579,611734.454673534
1821,8.88464160404025
1835,8.88464160404025
1869,61.1090580821649
2,1, 7, 1, 1, 3,55.00,60.00,Thursday       
6,18.3
7,15.4739129019553
8,75.
9,7.2
10,40.
751,1.
752,5.
753,3.
754,0.0
1580,15.6
1581,82.2
1582,6.7
1583,26.7
1584,0.7
827,25.653883456818
860,26.9924791799974
893,27.1083666811505
926,26.541151151763
959,25.2589745084253
992,25.1646311647664
1025,25.2780590530097
1058,24.9590942744497
1091,25.2442915044933
1124,25.1650515533211
1157,25.033166109183
1190,24.4781525774649
1223,25.0058572091995
1256,24.7970478500318
1289,24.5755031200235
1322,24.0599479583588
1355,24.5223435752535
1388,24.3146237987219
1421,23.134888947803
1577,611732.195552267
1578,2.26066529272813
1579,611734.45621756
1821,8.88464160404025
1835,8.88464160404025
1869,61.1090580821649
2,1, 7, 1, 1, 4, 0.00, 5.00,Thursday       
6,18.275
7,15.4112331026178
8,74.6666666666667
9,7.24166666666667
10,40.
751,1.
752,5.
753,3.08333333333333
754,0.0
1580,15.6
1581,82.2
1582,6.7
1583,26.7
1584,0.7
827,25.6581491615574
860,27.0034090216569
893,27.1239823160847
926,26.552405122719
959,25.2636136628835
992,25.1702770657568
1025,25.2798604327444
1058,24.9638758076032
1091,25.2462331621125
1124,25.1686980823986
1157,25.0372572500067
1190,24.4859429682776
1223,25.0092034074063
1256,24.8032597551791
1289,24.576858203759